 Entering Link 1 = C:\G09W\l1.exe PID=      1332.
  
 Copyright (c) 1988,1990,1992,1993,1995,1998,2003,2009,2013,
            Gaussian, Inc.  All Rights Reserved.
  
 This is part of the Gaussian(R) 09 program.  It is based on
 the Gaussian(R) 03 system (copyright 2003, Gaussian, Inc.),
 the Gaussian(R) 98 system (copyright 1998, Gaussian, Inc.),
 the Gaussian(R) 94 system (copyright 1995, Gaussian, Inc.),
 the Gaussian 92(TM) system (copyright 1992, Gaussian, Inc.),
 the Gaussian 90(TM) system (copyright 1990, Gaussian, Inc.),
 the Gaussian 88(TM) system (copyright 1988, Gaussian, Inc.),
 the Gaussian 86(TM) system (copyright 1986, Carnegie Mellon
 University), and the Gaussian 82(TM) system (copyright 1983,
 Carnegie Mellon University). Gaussian is a federally registered
 trademark of Gaussian, Inc.
  
 This software contains proprietary and confidential information,
 including trade secrets, belonging to Gaussian, Inc.
  
 This software is provided under written license and may be
 used, copied, transmitted, or stored only in accord with that
 written license.
  
 The following legend is applicable only to US Government
 contracts under FAR:
  
                    RESTRICTED RIGHTS LEGEND
  
 Use, reproduction and disclosure by the US Government is
 subject to restrictions as set forth in subparagraphs (a)
 and (c) of the Commercial Computer Software - Restricted
 Rights clause in FAR 52.227-19.
  
 Gaussian, Inc.
 340 Quinnipiac St., Bldg. 40, Wallingford CT 06492
  
  
 ---------------------------------------------------------------
 Warning -- This program may not be used in any manner that
 competes with the business of Gaussian, Inc. or will provide
 assistance to any competitor of Gaussian, Inc.  The licensee
 of this program is prohibited from giving any competitor of
 Gaussian, Inc. access to this program.  By using this program,
 the user acknowledges that Gaussian, Inc. is engaged in the
 business of creating and licensing software in the field of
 computational chemistry and represents and warrants to the
 licensee that it is not a competitor of Gaussian, Inc. and that
 it will not use this program in any manner prohibited above.
 ---------------------------------------------------------------
  

 Cite this work as:
 Gaussian 09, Revision D.01,
 M. J. Frisch, G. W. Trucks, H. B. Schlegel, G. E. Scuseria, 
 M. A. Robb, J. R. Cheeseman, G. Scalmani, V. Barone, B. Mennucci, 
 G. A. Petersson, H. Nakatsuji, M. Caricato, X. Li, H. P. Hratchian, 
 A. F. Izmaylov, J. Bloino, G. Zheng, J. L. Sonnenberg, M. Hada, 
 M. Ehara, K. Toyota, R. Fukuda, J. Hasegawa, M. Ishida, T. Nakajima, 
 Y. Honda, O. Kitao, H. Nakai, T. Vreven, J. A. Montgomery, Jr., 
 J. E. Peralta, F. Ogliaro, M. Bearpark, J. J. Heyd, E. Brothers, 
 K. N. Kudin, V. N. Staroverov, T. Keith, R. Kobayashi, J. Normand, 
 K. Raghavachari, A. Rendell, J. C. Burant, S. S. Iyengar, J. Tomasi, 
 M. Cossi, N. Rega, J. M. Millam, M. Klene, J. E. Knox, J. B. Cross, 
 V. Bakken, C. Adamo, J. Jaramillo, R. Gomperts, R. E. Stratmann, 
 O. Yazyev, A. J. Austin, R. Cammi, C. Pomelli, J. W. Ochterski, 
 R. L. Martin, K. Morokuma, V. G. Zakrzewski, G. A. Voth, 
 P. Salvador, J. J. Dannenberg, S. Dapprich, A. D. Daniels, 
 O. Farkas, J. B. Foresman, J. V. Ortiz, J. Cioslowski, 
 and D. J. Fox, Gaussian, Inc., Wallingford CT, 2013.
 
 ******************************************
 Gaussian 09:  EM64W-G09RevD.01 13-Apr-2013
                02-May-2018 
 ******************************************
 %Chk=19_Dopaminium.chk
 %Mem=64GB
 %NProcShared=20
 Will use up to   20 processors via shared memory.
 -------------------------------------
 # RB3LYP/6-311++G** Opt Test prop=EFG
 -------------------------------------
 1/14=-1,18=20,19=15,26=3,38=1/1,3;
 2/9=110,12=2,17=6,18=5,40=1/2;
 3/5=4,6=6,7=1111,11=2,16=1,25=1,30=1,71=1,74=-5,116=1/1,2,3;
 4//1;
 5/5=2,38=5/2;
 6/7=2,8=2,9=2,10=2,14=1,28=1/1,2;
 7//1,2,3,16;
 1/14=-1,18=20,19=15,26=3/3(2);
 2/9=110/2;
 99//99;
 2/9=110/2;
 3/5=4,6=6,7=1111,11=2,16=1,25=1,30=1,71=1,74=-5,116=1/1,2,3;
 4/5=5,16=3,69=1/1;
 5/5=2,38=5/2;
 7//1,2,3,16;
 1/14=-1,18=20,19=15,26=3/3(-5);
 2/9=110/2;
 6/7=2,8=2,9=2,10=2,14=1,19=2,28=1/1,2;
 99/9=1/99;
 ----------
 Dopaminium
 ----------
 Symbolic Z-matrix:
 Charge =  1 Multiplicity = 1
 C                    0    -0.645     1.0763   -0.2325 
 C                    0    -0.0346   -0.0788    0.0835 
 C                    0    -0.8196   -1.1297    0.382 
 C                    0    -2.1613   -1.0583    0.3767 
 C                    0    -2.7545    0.1073    0.0643 
 C                    0    -1.9839    1.1637   -0.2401 
 C                    0     1.472    -0.252     0.1243 
 C                    0     2.3209    0.9963   -0.1464 
 N                    0     3.7541    0.5665   -0.0006 
 O                    0    -4.1109    0.2004    0.0619 
 O                    0    -2.9284   -2.1367    0.6909 
 H                    0    -0.0633    1.9753   -0.4876 
 H                    0    -0.3504   -2.0923    0.6464 
 H                    0    -2.4642    2.1226   -0.4983 
 H                    0     1.7388   -0.6455    1.1353 
 H                    0     1.7431   -1.0373   -0.6224 
 H                    0     2.1667    1.3829   -1.1798 
 H                    0     2.1144    1.8026    0.5941 
 H                    0     4.3823    1.3812   -0.1841 
 H                    0     3.9146    0.2139    0.9699 
 H                    0     3.9609   -0.195    -0.6857 
 H                    0    -4.3797    1.0984   -0.1877 
 H                    0    -3.8628   -1.8714    0.6629 
 

 GradGradGradGradGradGradGradGradGradGradGradGradGradGradGradGradGradGrad
 Berny optimization.
 Initialization pass.
                           ----------------------------
                           !    Initial Parameters    !
                           ! (Angstroms and Degrees)  !
 --------------------------                            --------------------------
 ! Name  Definition              Value          Derivative Info.                !
 --------------------------------------------------------------------------------
 ! R1    R(1,2)                  1.3441         estimate D2E/DX2                !
 ! R2    R(1,6)                  1.3418         estimate D2E/DX2                !
 ! R3    R(1,12)                 1.1008         estimate D2E/DX2                !
 ! R4    R(2,3)                  1.3453         estimate D2E/DX2                !
 ! R5    R(2,7)                  1.5171         estimate D2E/DX2                !
 ! R6    R(3,4)                  1.3436         estimate D2E/DX2                !
 ! R7    R(3,13)                 1.103          estimate D2E/DX2                !
 ! R8    R(4,5)                  1.3447         estimate D2E/DX2                !
 ! R9    R(4,11)                 1.3602         estimate D2E/DX2                !
 ! R10   R(5,6)                  1.3426         estimate D2E/DX2                !
 ! R11   R(5,10)                 1.3596         estimate D2E/DX2                !
 ! R12   R(6,14)                 1.1031         estimate D2E/DX2                !
 ! R13   R(7,8)                  1.5337         estimate D2E/DX2                !
 ! R14   R(7,15)                 1.1172         estimate D2E/DX2                !
 ! R15   R(7,16)                 1.117          estimate D2E/DX2                !
 ! R16   R(8,9)                  1.5033         estimate D2E/DX2                !
 ! R17   R(8,17)                 1.1141         estimate D2E/DX2                !
 ! R18   R(8,18)                 1.114          estimate D2E/DX2                !
 ! R19   R(9,19)                 1.045          estimate D2E/DX2                !
 ! R20   R(9,20)                 1.045          estimate D2E/DX2                !
 ! R21   R(9,21)                 1.045          estimate D2E/DX2                !
 ! R22   R(10,22)                0.97           estimate D2E/DX2                !
 ! R23   R(11,23)                0.9717         estimate D2E/DX2                !
 ! A1    A(2,1,6)              120.6943         estimate D2E/DX2                !
 ! A2    A(2,1,12)             121.0881         estimate D2E/DX2                !
 ! A3    A(6,1,12)             118.2172         estimate D2E/DX2                !
 ! A4    A(1,2,3)              117.2901         estimate D2E/DX2                !
 ! A5    A(1,2,7)              123.7397         estimate D2E/DX2                !
 ! A6    A(3,2,7)              118.9699         estimate D2E/DX2                !
 ! A7    A(2,3,4)              122.705          estimate D2E/DX2                !
 ! A8    A(2,3,13)             119.1243         estimate D2E/DX2                !
 ! A9    A(4,3,13)             118.1703         estimate D2E/DX2                !
 ! A10   A(3,4,5)              119.1769         estimate D2E/DX2                !
 ! A11   A(3,4,11)             121.3405         estimate D2E/DX2                !
 ! A12   A(5,4,11)             119.4805         estimate D2E/DX2                !
 ! A13   A(4,5,6)              118.786          estimate D2E/DX2                !
 ! A14   A(4,5,10)             119.9924         estimate D2E/DX2                !
 ! A15   A(6,5,10)             121.2216         estimate D2E/DX2                !
 ! A16   A(1,6,5)              121.3465         estimate D2E/DX2                !
 ! A17   A(1,6,14)             119.5            estimate D2E/DX2                !
 ! A18   A(5,6,14)             119.1533         estimate D2E/DX2                !
 ! A19   A(2,7,8)              116.8731         estimate D2E/DX2                !
 ! A20   A(2,7,15)             107.5604         estimate D2E/DX2                !
 ! A21   A(2,7,16)             107.6563         estimate D2E/DX2                !
 ! A22   A(8,7,15)             108.3139         estimate D2E/DX2                !
 ! A23   A(8,7,16)             108.6562         estimate D2E/DX2                !
 ! A24   A(15,7,16)            107.4183         estimate D2E/DX2                !
 ! A25   A(7,8,9)              106.1328         estimate D2E/DX2                !
 ! A26   A(7,8,17)             111.6883         estimate D2E/DX2                !
 ! A27   A(7,8,18)             111.6642         estimate D2E/DX2                !
 ! A28   A(9,8,17)             108.7309         estimate D2E/DX2                !
 ! A29   A(9,8,18)             108.6125         estimate D2E/DX2                !
 ! A30   A(17,8,18)            109.8617         estimate D2E/DX2                !
 ! A31   A(8,9,19)             109.4617         estimate D2E/DX2                !
 ! A32   A(8,9,20)             109.449          estimate D2E/DX2                !
 ! A33   A(8,9,21)             109.4762         estimate D2E/DX2                !
 ! A34   A(19,9,20)            109.5004         estimate D2E/DX2                !
 ! A35   A(19,9,21)            109.5134         estimate D2E/DX2                !
 ! A36   A(20,9,21)            109.4266         estimate D2E/DX2                !
 ! A37   A(5,10,22)            109.8951         estimate D2E/DX2                !
 ! A38   A(4,11,23)            108.6137         estimate D2E/DX2                !
 ! D1    D(6,1,2,3)              0.2725         estimate D2E/DX2                !
 ! D2    D(6,1,2,7)           -179.5071         estimate D2E/DX2                !
 ! D3    D(12,1,2,3)          -179.9717         estimate D2E/DX2                !
 ! D4    D(12,1,2,7)             0.2487         estimate D2E/DX2                !
 ! D5    D(2,1,6,5)             -0.0657         estimate D2E/DX2                !
 ! D6    D(2,1,6,14)           179.7438         estimate D2E/DX2                !
 ! D7    D(12,1,6,5)          -179.8284         estimate D2E/DX2                !
 ! D8    D(12,1,6,14)           -0.0189         estimate D2E/DX2                !
 ! D9    D(1,2,3,4)             -0.1721         estimate D2E/DX2                !
 ! D10   D(1,2,3,13)          -179.9577         estimate D2E/DX2                !
 ! D11   D(7,2,3,4)            179.6184         estimate D2E/DX2                !
 ! D12   D(7,2,3,13)            -0.1672         estimate D2E/DX2                !
 ! D13   D(1,2,7,8)              3.143          estimate D2E/DX2                !
 ! D14   D(1,2,7,15)           125.1378         estimate D2E/DX2                !
 ! D15   D(1,2,7,16)          -119.3801         estimate D2E/DX2                !
 ! D16   D(3,2,7,8)           -176.6331         estimate D2E/DX2                !
 ! D17   D(3,2,7,15)           -54.6383         estimate D2E/DX2                !
 ! D18   D(3,2,7,16)            60.8438         estimate D2E/DX2                !
 ! D19   D(2,3,4,5)             -0.1392         estimate D2E/DX2                !
 ! D20   D(2,3,4,11)          -179.6053         estimate D2E/DX2                !
 ! D21   D(13,3,4,5)           179.6483         estimate D2E/DX2                !
 ! D22   D(13,3,4,11)            0.1822         estimate D2E/DX2                !
 ! D23   D(3,4,5,6)              0.3476         estimate D2E/DX2                !
 ! D24   D(3,4,5,10)          -179.5928         estimate D2E/DX2                !
 ! D25   D(11,4,5,6)           179.8238         estimate D2E/DX2                !
 ! D26   D(11,4,5,10)           -0.1166         estimate D2E/DX2                !
 ! D27   D(3,4,11,23)          177.7972         estimate D2E/DX2                !
 ! D28   D(5,4,11,23)           -1.6673         estimate D2E/DX2                !
 ! D29   D(4,5,6,1)             -0.2515         estimate D2E/DX2                !
 ! D30   D(4,5,6,14)           179.9385         estimate D2E/DX2                !
 ! D31   D(10,5,6,1)           179.6881         estimate D2E/DX2                !
 ! D32   D(10,5,6,14)           -0.122          estimate D2E/DX2                !
 ! D33   D(4,5,10,22)         -179.6563         estimate D2E/DX2                !
 ! D34   D(6,5,10,22)            0.4049         estimate D2E/DX2                !
 ! D35   D(2,7,8,9)            178.0944         estimate D2E/DX2                !
 ! D36   D(2,7,8,17)           -63.5595         estimate D2E/DX2                !
 ! D37   D(2,7,8,18)            59.904          estimate D2E/DX2                !
 ! D38   D(15,7,8,9)            56.493          estimate D2E/DX2                !
 ! D39   D(15,7,8,17)          174.8391         estimate D2E/DX2                !
 ! D40   D(15,7,8,18)          -61.6974         estimate D2E/DX2                !
 ! D41   D(16,7,8,9)           -59.9019         estimate D2E/DX2                !
 ! D42   D(16,7,8,17)           58.4442         estimate D2E/DX2                !
 ! D43   D(16,7,8,18)         -178.0923         estimate D2E/DX2                !
 ! D44   D(7,8,9,19)           179.486          estimate D2E/DX2                !
 ! D45   D(7,8,9,20)           -60.4977         estimate D2E/DX2                !
 ! D46   D(7,8,9,21)            59.4371         estimate D2E/DX2                !
 ! D47   D(17,8,9,19)           59.2009         estimate D2E/DX2                !
 ! D48   D(17,8,9,20)          179.2172         estimate D2E/DX2                !
 ! D49   D(17,8,9,21)          -60.848          estimate D2E/DX2                !
 ! D50   D(18,8,9,19)          -60.3204         estimate D2E/DX2                !
 ! D51   D(18,8,9,20)           59.6959         estimate D2E/DX2                !
 ! D52   D(18,8,9,21)          179.6307         estimate D2E/DX2                !
 --------------------------------------------------------------------------------
 Trust Radius=3.00D-01 FncErr=1.00D-07 GrdErr=1.00D-06
 Number of steps in this run=    123 maximum allowed number of steps=    138.
 GradGradGradGradGradGradGradGradGradGradGradGradGradGradGradGradGradGrad

                          Input orientation:                          
 ---------------------------------------------------------------------
 Center     Atomic      Atomic             Coordinates (Angstroms)
 Number     Number       Type             X           Y           Z
 ---------------------------------------------------------------------
      1          6           0       -0.645000    1.076300   -0.232500
      2          6           0       -0.034600   -0.078800    0.083500
      3          6           0       -0.819600   -1.129700    0.382000
      4          6           0       -2.161300   -1.058300    0.376700
      5          6           0       -2.754500    0.107300    0.064300
      6          6           0       -1.983900    1.163700   -0.240100
      7          6           0        1.472000   -0.252000    0.124300
      8          6           0        2.320900    0.996300   -0.146400
      9          7           0        3.754100    0.566500   -0.000600
     10          8           0       -4.110900    0.200400    0.061900
     11          8           0       -2.928400   -2.136700    0.690900
     12          1           0       -0.063300    1.975300   -0.487600
     13          1           0       -0.350400   -2.092300    0.646400
     14          1           0       -2.464200    2.122600   -0.498300
     15          1           0        1.738800   -0.645500    1.135300
     16          1           0        1.743100   -1.037300   -0.622400
     17          1           0        2.166700    1.382900   -1.179800
     18          1           0        2.114400    1.802600    0.594100
     19          1           0        4.382300    1.381200   -0.184100
     20          1           0        3.914600    0.213900    0.969900
     21          1           0        3.960900   -0.195000   -0.685700
     22          1           0       -4.379700    1.098400   -0.187700
     23          1           0       -3.862800   -1.871400    0.662900
 ---------------------------------------------------------------------
                    Distance matrix (angstroms):
                    1          2          3          4          5
     1  C    0.000000
     2  C    1.344135   0.000000
     3  C    2.296635   1.345258   0.000000
     4  C    2.688272   2.359712   1.343609   0.000000
     5  C    2.340308   2.726327   2.318392   1.344657   0.000000
     6  C    1.341771   2.334158   2.646183   2.312833   1.342559
     7  C    2.524555   1.517072   2.467427   3.730241   4.242169
     8  C    2.968228   2.599437   3.829076   4.958340   5.156976
     9  N    4.434609   3.844182   4.893078   6.146079   6.525102
    10  O    3.586967   4.085908   3.564307   2.341872   1.359593
    11  O    4.048451   3.602494   2.357224   1.360188   2.336323
    12  H    1.100751   2.132207   3.311981   3.788317   3.322134
    13  H    3.301406   2.114419   1.103021   2.102678   3.310102
    14  H    2.115392   3.329806   3.749279   3.312929   2.112398
    15  H    3.243143   2.138312   2.710594   3.994579   4.680117
    16  H    3.212841   2.139447   2.754049   4.030258   4.691489
    17  H    2.982790   2.928859   4.203613   5.207085   5.233847
    18  H    2.970702   2.901479   4.153520   5.149138   5.182752
    19  H    5.036770   4.659637   5.803865   7.006023   7.253857
    20  H    4.793689   4.058024   4.956162   6.235939   6.731149
    21  H    4.799574   4.070527   4.986665   6.273381   6.763910
    22  H    3.735034   4.509905   4.238313   3.145028   1.920171
    23  H    4.454763   4.266642   3.144851   1.907392   2.345614
                    6          7          8          9         10
     6  C    0.000000
     7  C    3.752364   0.000000
     8  C    4.309072   1.533676   0.000000
     9  N    5.773963   2.427658   1.503346   0.000000
    10  O    2.354417   5.601547   6.484204   7.873764   0.000000
    11  O    3.556892   4.820441   6.170244   7.241634   2.693693
    12  H    2.099680   2.773524   2.599859   4.098101   4.453682
    13  H    3.749099   2.642051   4.159787   4.933026   4.442913
    14  H    1.103107   4.638968   4.928445   6.429340   2.592354
    15  H    4.361585   1.117204   2.162661   2.611637   6.007223
    16  H    4.345237   1.117028   2.167016   2.646305   6.022415
    17  H    4.261287   2.203675   1.114070   2.139360   6.507564
    18  H    4.230856   2.203354   1.114048   2.137809   6.450166
    19  H    6.370160   3.351462   2.097365   1.045009   8.578418
    20  H    6.095779   2.626480   2.097178   1.044968   8.076713
    21  H    6.114350   2.618009   2.097532   1.044993   8.115984
    22  H    2.397262   6.013594   6.701505   8.153320   0.970030
    23  H    3.682052   5.601128   6.864169   8.025008   2.171430
                   11         12         13         14         15
    11  O    0.000000
    12  H    5.148418   0.000000
    13  H    2.578766   4.232464   0.000000
    14  H    4.446495   2.405438   4.852203   0.000000
    15  H    4.919748   3.570709   2.587858   5.291147   0.000000
    16  H    4.975575   3.515254   2.665637   5.263244   1.800843
    17  H    6.468937   2.408937   4.663455   4.738864   3.107602
    18  H    6.399788   2.437679   4.609579   4.717978   2.535186
    19  H    8.160121   4.495378   5.929029   6.893690   3.582795
    20  H    7.240843   4.588085   4.859366   6.818199   2.345215
    21  H    7.288874   4.576421   4.895053   6.832884   2.908044
    22  H    3.652955   4.414771   5.206875   2.194219   6.498273
    23  H    0.971736   5.527834   3.519378   4.388223   5.753600
                   16         17         18         19         20
    16  H    0.000000
    17  H    2.519424   0.000000
    18  H    3.111715   1.823624   0.000000
    19  H    3.606470   2.429054   2.434449   0.000000
    20  H    2.969231   3.007146   2.430209   1.706766   0.000000
    21  H    2.373207   2.439889   3.006303   1.706923   1.705976
    22  H    6.499143   6.627259   6.578787   8.766563   8.421270
    23  H    5.811526   7.095131   7.016404   8.903847   8.057957
                   21         22         23
    21  H    0.000000
    22  H    8.454969   0.000000
    23  H    8.114143   3.132159   0.000000
 Stoichiometry    C8H12NO2(1+)
 Framework group  C1[X(C8H12NO2)]
 Deg. of freedom    63
 Full point group                 C1      NOp   1
 Largest Abelian subgroup         C1      NOp   1
 Largest concise Abelian subgroup C1      NOp   1
                         Standard orientation:                         
 ---------------------------------------------------------------------
 Center     Atomic      Atomic             Coordinates (Angstroms)
 Number     Number       Type             X           Y           Z
 ---------------------------------------------------------------------
      1          6           0        0.148036   -1.147286    0.033081
      2          6           0        0.536688    0.139433    0.034778
      3          6           0       -0.429341    1.075557    0.021472
      4          6           0       -1.737336    0.768779    0.003520
      5          6           0       -2.107415   -0.523924   -0.004364
      6          6           0       -1.154356   -1.469354    0.013137
      7          6           0        1.987949    0.581278    0.045851
      8          6           0        3.049539   -0.523673   -0.019509
      9          7           0        4.379923    0.176046   -0.042290
     10          8           0       -3.426279   -0.853149   -0.030882
     11          8           0       -2.691155    1.738260   -0.017622
     12          1           0        0.886009   -1.963944    0.043934
     13          1           0       -0.144356    2.141127    0.021737
     14          1           0       -1.451171   -2.531765    0.007832
     15          1           0        2.138798    1.264964   -0.824760
     16          1           0        2.152590    1.180522    0.974049
     17          1           0        3.009304   -1.186693    0.874884
     18          1           0        2.952352   -1.133022   -0.947060
     19          1           0        5.146060   -0.533738   -0.078126
     20          1           0        4.434944    0.791550   -0.884955
     21          1           0        4.482674    0.757330    0.820010
     22          1           0       -3.525769   -1.818059   -0.027756
     23          1           0       -3.564014    1.313662   -0.063520
 ---------------------------------------------------------------------
 Rotational constants (GHZ):      3.0431596      0.5220152      0.4494715
 Standard basis: 6-311++G(d,p) (5D, 7F)
 There are   337 symmetry adapted cartesian basis functions of A   symmetry.
 There are   326 symmetry adapted basis functions of A   symmetry.
   326 basis functions,   504 primitive gaussians,   337 cartesian basis functions
    41 alpha electrons       41 beta electrons
       nuclear repulsion energy       611.7911211968 Hartrees.
 NAtoms=   23 NActive=   23 NUniq=   23 SFac= 1.00D+00 NAtFMM=   60 NAOKFM=F Big=F
 Integral buffers will be    131072 words long.
 Raffenetti 2 integral format.
 Two-electron integral symmetry is turned on.
 One-electron integrals computed using PRISM.
 NBasis=   326 RedAO= T EigKep=  1.00D-06  NBF=   326
 NBsUse=   325 1.00D-06 EigRej=  3.87D-07 NBFU=   325
 ExpMin= 3.60D-02 ExpMax= 8.59D+03 ExpMxC= 1.30D+03 IAcc=3 IRadAn=         5 AccDes= 0.00D+00
 Harris functional with IExCor=  402 and IRadAn=       5 diagonalized for initial guess.
 HarFok:  IExCor=  402 AccDes= 0.00D+00 IRadAn=         5 IDoV= 1 UseB2=F ITyADJ=14
 ICtDFT=  3500011 ScaDFX=  1.000000  1.000000  1.000000  1.000000
 FoFCou: FMM=F IPFlag=           0 FMFlag=      100000 FMFlg1=           0
         NFxFlg=           0 DoJE=T BraDBF=F KetDBF=T FulRan=T
         wScrn=  0.000000 ICntrl=     500 IOpCl=  0 I1Cent=   200000004 NGrid=           0
         NMat0=    1 NMatS0=      1 NMatT0=    0 NMatD0=    1 NMtDS0=    0 NMtDT0=    0
 Petite list used in FoFCou.
 Keep R1 ints in memory in canonical form, NReq=1440200535.
 Requested convergence on RMS density matrix=1.00D-08 within 128 cycles.
 Requested convergence on MAX density matrix=1.00D-06.
 Requested convergence on             energy=1.00D-06.
 No special actions if energy rises.
 SCF Done:  E(RB3LYP) =  -517.161118009     A.U. after   17 cycles
            NFock= 17  Conv=0.66D-08     -V/T= 2.0029

 **********************************************************************

            Population analysis using the SCF density.

 **********************************************************************

 Orbital symmetries:
       Occupied  (A) (A) (A) (A) (A) (A) (A) (A) (A) (A) (A) (A)
                 (A) (A) (A) (A) (A) (A) (A) (A) (A) (A) (A) (A)
                 (A) (A) (A) (A) (A) (A) (A) (A) (A) (A) (A) (A)
                 (A) (A) (A) (A) (A)
       Virtual   (A) (A) (A) (A) (A) (A) (A) (A) (A) (A) (A) (A)
                 (A) (A) (A) (A) (A) (A) (A) (A) (A) (A) (A) (A)
                 (A) (A) (A) (A) (A) (A) (A) (A) (A) (A) (A) (A)
                 (A) (A) (A) (A) (A) (A) (A) (A) (A) (A) (A) (A)
                 (A) (A) (A) (A) (A) (A) (A) (A) (A) (A) (A) (A)
                 (A) (A) (A) (A) (A) (A) (A) (A) (A) (A) (A) (A)
                 (A) (A) (A) (A) (A) (A) (A) (A) (A) (A) (A) (A)
                 (A) (A) (A) (A) (A) (A) (A) (A) (A) (A) (A) (A)
                 (A) (A) (A) (A) (A) (A) (A) (A) (A) (A) (A) (A)
                 (A) (A) (A) (A) (A) (A) (A) (A) (A) (A) (A) (A)
                 (A) (A) (A) (A) (A) (A) (A) (A) (A) (A) (A) (A)
                 (A) (A) (A) (A) (A) (A) (A) (A) (A) (A) (A) (A)
                 (A) (A) (A) (A) (A) (A) (A) (A) (A) (A) (A) (A)
                 (A) (A) (A) (A) (A) (A) (A) (A) (A) (A) (A) (A)
                 (A) (A) (A) (A) (A) (A) (A) (A) (A) (A) (A) (A)
                 (A) (A) (A) (A) (A) (A) (A) (A) (A) (A) (A) (A)
                 (A) (A) (A) (A) (A) (A) (A) (A) (A) (A) (A) (A)
                 (A) (A) (A) (A) (A) (A) (A) (A) (A) (A) (A) (A)
                 (A) (A) (A) (A) (A) (A) (A) (A) (A) (A) (A) (A)
                 (A) (A) (A) (A) (A) (A) (A) (A) (A) (A) (A) (A)
                 (A) (A) (A) (A) (A) (A) (A) (A) (A) (A) (A) (A)
                 (A) (A) (A) (A) (A) (A) (A) (A) (A) (A) (A) (A)
                 (A) (A) (A) (A) (A) (A) (A) (A) (A) (A) (A) (A)
                 (A) (A) (A) (A) (A) (A) (A) (A)
 The electronic state is 1-A.
 Alpha  occ. eigenvalues --  -19.26438 -19.24626 -14.64506 -10.42120 -10.35157
 Alpha  occ. eigenvalues --  -10.33250 -10.33157 -10.29773 -10.28148 -10.27811
 Alpha  occ. eigenvalues --  -10.27584  -1.20328  -1.18718  -1.15333  -1.00581
 Alpha  occ. eigenvalues --   -0.95445  -0.88304  -0.87029  -0.82223  -0.79046
 Alpha  occ. eigenvalues --   -0.77837  -0.75262  -0.72571  -0.68606  -0.67244
 Alpha  occ. eigenvalues --   -0.64825  -0.63468  -0.60835  -0.58771  -0.56016
 Alpha  occ. eigenvalues --   -0.55906  -0.54358  -0.54026  -0.52471  -0.50084
 Alpha  occ. eigenvalues --   -0.47915  -0.47609  -0.45650  -0.45312  -0.36138
 Alpha  occ. eigenvalues --   -0.33295
 Alpha virt. eigenvalues --   -0.20362  -0.14881  -0.14834  -0.13407  -0.11903
 Alpha virt. eigenvalues --   -0.10137  -0.09885  -0.09761  -0.09468  -0.08882
 Alpha virt. eigenvalues --   -0.08215  -0.06656  -0.06415  -0.05382  -0.05037
 Alpha virt. eigenvalues --   -0.04611  -0.04438  -0.02712  -0.02214  -0.02190
 Alpha virt. eigenvalues --   -0.01343  -0.01204   0.00031   0.00186   0.00753
 Alpha virt. eigenvalues --    0.00983   0.01202   0.01385   0.02018   0.02474
 Alpha virt. eigenvalues --    0.02952   0.03323   0.03523   0.03800   0.04369
 Alpha virt. eigenvalues --    0.04622   0.05605   0.06057   0.06179   0.06645
 Alpha virt. eigenvalues --    0.06788   0.07427   0.07977   0.08235   0.08542
 Alpha virt. eigenvalues --    0.09273   0.09681   0.10535   0.10968   0.11791
 Alpha virt. eigenvalues --    0.12267   0.13334   0.13423   0.13971   0.14626
 Alpha virt. eigenvalues --    0.15455   0.15886   0.16945   0.17422   0.18350
 Alpha virt. eigenvalues --    0.18720   0.20006   0.20516   0.20617   0.21307
 Alpha virt. eigenvalues --    0.21846   0.22227   0.23042   0.23999   0.24406
 Alpha virt. eigenvalues --    0.25437   0.27889   0.28495   0.28662   0.29039
 Alpha virt. eigenvalues --    0.29935   0.30305   0.31723   0.33302   0.34420
 Alpha virt. eigenvalues --    0.35899   0.36506   0.39229   0.40656   0.41373
 Alpha virt. eigenvalues --    0.42156   0.42965   0.44141   0.45683   0.46770
 Alpha virt. eigenvalues --    0.47333   0.47423   0.48302   0.49595   0.49799
 Alpha virt. eigenvalues --    0.50373   0.51895   0.52650   0.53124   0.54311
 Alpha virt. eigenvalues --    0.54799   0.56191   0.56350   0.58258   0.58648
 Alpha virt. eigenvalues --    0.60089   0.60455   0.61296   0.62214   0.65028
 Alpha virt. eigenvalues --    0.66082   0.67688   0.69700   0.70268   0.73827
 Alpha virt. eigenvalues --    0.76290   0.77328   0.78554   0.79038   0.79847
 Alpha virt. eigenvalues --    0.81835   0.82616   0.83827   0.85664   0.89590
 Alpha virt. eigenvalues --    0.90134   0.90881   0.92294   0.94945   0.98083
 Alpha virt. eigenvalues --    0.99051   1.00732   1.01749   1.02780   1.04973
 Alpha virt. eigenvalues --    1.05556   1.07025   1.09185   1.10101   1.11014
 Alpha virt. eigenvalues --    1.12932   1.13494   1.18795   1.19543   1.20580
 Alpha virt. eigenvalues --    1.22920   1.24464   1.28431   1.30782   1.33200
 Alpha virt. eigenvalues --    1.33792   1.36438   1.38582   1.41192   1.42136
 Alpha virt. eigenvalues --    1.45342   1.45957   1.46742   1.48222   1.49848
 Alpha virt. eigenvalues --    1.50431   1.50764   1.51253   1.53311   1.53973
 Alpha virt. eigenvalues --    1.54854   1.55926   1.59288   1.59689   1.60719
 Alpha virt. eigenvalues --    1.63703   1.65265   1.65959   1.69357   1.72898
 Alpha virt. eigenvalues --    1.73289   1.74885   1.77460   1.81543   1.83333
 Alpha virt. eigenvalues --    1.83633   1.83967   1.85948   1.87567   1.88487
 Alpha virt. eigenvalues --    1.92062   1.92717   1.93879   1.95582   1.98143
 Alpha virt. eigenvalues --    1.99773   2.00474   2.02740   2.05062   2.10354
 Alpha virt. eigenvalues --    2.10804   2.13725   2.14732   2.15558   2.23130
 Alpha virt. eigenvalues --    2.25332   2.26261   2.29032   2.32132   2.37802
 Alpha virt. eigenvalues --    2.38191   2.38883   2.39578   2.45411   2.48483
 Alpha virt. eigenvalues --    2.49398   2.49833   2.51483   2.51951   2.53814
 Alpha virt. eigenvalues --    2.55412   2.57252   2.57965   2.58962   2.60952
 Alpha virt. eigenvalues --    2.63790   2.64751   2.66771   2.66964   2.68258
 Alpha virt. eigenvalues --    2.72037   2.73949   2.77541   2.80321   2.80857
 Alpha virt. eigenvalues --    2.81413   2.81564   2.88956   2.93473   2.97817
 Alpha virt. eigenvalues --    2.98003   2.99989   3.00181   3.02489   3.05214
 Alpha virt. eigenvalues --    3.05972   3.12945   3.15167   3.21809   3.29783
 Alpha virt. eigenvalues --    3.30968   3.38505   3.39392   3.41725   3.48875
 Alpha virt. eigenvalues --    3.56008   3.59402   3.63066   3.63282   3.67324
 Alpha virt. eigenvalues --    3.82952   3.83069   3.89609   3.93805   4.04753
 Alpha virt. eigenvalues --    4.07103   4.10296   4.23423   4.37554   4.39267
 Alpha virt. eigenvalues --    4.51261   4.81855   4.87303   4.94870   5.32037
 Alpha virt. eigenvalues --    5.39200   5.61870   5.74822  23.40989  23.61375
 Alpha virt. eigenvalues --   23.72284  23.91459  23.93684  24.12806  24.16331
 Alpha virt. eigenvalues --   24.28282  35.27779  49.81331  49.89513
          Condensed to atoms (all electrons):
               1          2          3          4          5          6
     1  C   25.200423   0.940589  -8.045358   2.255582   0.255989  -7.352453
     2  C    0.940589  20.408295  -2.935397  -2.012646  -0.738992  -1.886232
     3  C   -8.045358  -2.935397  15.519798   1.324181  -4.890400   2.282974
     4  C    2.255582  -2.012646   1.324181  12.803278  -2.279195  -4.347009
     5  C    0.255989  -0.738992  -4.890400  -2.279195  13.794541  -0.372885
     6  C   -7.352453  -1.886232   2.282974  -4.347009  -0.372885  14.737387
     7  C   -7.663368 -11.247329   3.417062  -1.281502   0.049692   3.346088
     8  C    1.862978   2.711797  -1.798452  -0.091298   0.123762  -0.782285
     9  N   -0.121312  -0.462024   0.115098  -0.003086  -0.000491   0.046718
    10  O   -0.053208   0.052365  -0.153167  -0.874623   0.644799   0.371938
    11  O   -0.038834   0.016849  -0.273595   0.334185   0.081651  -0.114794
    12  H    0.819206  -0.182490  -0.193256   0.090762   0.166319  -0.178732
    13  H    0.112644  -0.075806   0.515944   0.057065  -0.153233  -0.006385
    14  H   -0.028558   0.117836   0.074505  -0.030085  -0.308618   0.482723
    15  H   -0.183936  -0.184348   0.052463  -0.053158   0.005067   0.074312
    16  H   -0.108288   0.024875   0.104408   0.100081   0.034176  -0.073602
    17  H   -0.143881  -0.093833   0.039954  -0.024367  -0.014779   0.085037
    18  H   -0.067906  -0.003460   0.079716   0.021190  -0.002675  -0.047289
    19  H    0.004025   0.041840  -0.007410   0.000822   0.000157  -0.004987
    20  H   -0.001905   0.006527  -0.000306  -0.000920  -0.000928  -0.000294
    21  H   -0.003113  -0.003836   0.009092   0.000085  -0.000261   0.000047
    22  H   -0.070295   0.005110   0.037082   0.202857   0.086286  -0.255972
    23  H    0.035073  -0.007922   0.120421   0.241518  -0.299437  -0.058213
               7          8          9         10         11         12
     1  C   -7.663368   1.862978  -0.121312  -0.053208  -0.038834   0.819206
     2  C  -11.247329   2.711797  -0.462024   0.052365   0.016849  -0.182490
     3  C    3.417062  -1.798452   0.115098  -0.153167  -0.273595  -0.193256
     4  C   -1.281502  -0.091298  -0.003086  -0.874623   0.334185   0.090762
     5  C    0.049692   0.123762  -0.000491   0.644799   0.081651   0.166319
     6  C    3.346088  -0.782285   0.046718   0.371938  -0.114794  -0.178732
     7  C   22.906047  -4.262921   0.571942   0.006787   0.031996  -0.255997
     8  C   -4.262921   8.515047  -0.225471  -0.001138  -0.000557   0.085438
     9  N    0.571942  -0.225471   6.263094   0.000014  -0.000054  -0.007223
    10  O    0.006787  -0.001138   0.000014   8.050645   0.001274  -0.003025
    11  O    0.031996  -0.000557  -0.000054   0.001274   8.011629   0.000492
    12  H   -0.255997   0.085438  -0.007223  -0.003025   0.000492   0.628965
    13  H   -0.130046  -0.017507  -0.003936  -0.003534  -0.041323  -0.001950
    14  H    0.010402  -0.008064   0.000175  -0.018503  -0.002773  -0.034011
    15  H    0.538149   0.042106  -0.001907  -0.000220  -0.000405  -0.002634
    16  H    0.271103  -0.057197  -0.013214  -0.000141   0.000218  -0.000280
    17  H    0.121016   0.351882   0.006085   0.000050   0.000054  -0.012642
    18  H    0.101826   0.240068   0.008481   0.000197   0.000207  -0.009712
    19  H   -0.038311   0.010050   0.315393  -0.000001  -0.000004   0.000706
    20  H    0.000058  -0.009847   0.340133  -0.000002   0.000019   0.000073
    21  H    0.045282  -0.052103   0.336725  -0.000002   0.000014   0.000144
    22  H    0.007950  -0.000614   0.000020   0.247982   0.002607   0.001784
    23  H   -0.022367   0.001314  -0.000059   0.022300   0.235294   0.000909
              13         14         15         16         17         18
     1  C    0.112644  -0.028558  -0.183936  -0.108288  -0.143881  -0.067906
     2  C   -0.075806   0.117836  -0.184348   0.024875  -0.093833  -0.003460
     3  C    0.515944   0.074505   0.052463   0.104408   0.039954   0.079716
     4  C    0.057065  -0.030085  -0.053158   0.100081  -0.024367   0.021190
     5  C   -0.153233  -0.308618   0.005067   0.034176  -0.014779  -0.002675
     6  C   -0.006385   0.482723   0.074312  -0.073602   0.085037  -0.047289
     7  C   -0.130046   0.010402   0.538149   0.271103   0.121016   0.101826
     8  C   -0.017507  -0.008064   0.042106  -0.057197   0.351882   0.240068
     9  N   -0.003936   0.000175  -0.001907  -0.013214   0.006085   0.008481
    10  O   -0.003534  -0.018503  -0.000220  -0.000141   0.000050   0.000197
    11  O   -0.041323  -0.002773  -0.000405   0.000218   0.000054   0.000207
    12  H   -0.001950  -0.034011  -0.002634  -0.000280  -0.012642  -0.009712
    13  H    0.547777   0.003715  -0.005866  -0.001350   0.000398   0.000842
    14  H    0.003715   0.580665   0.000381  -0.000280   0.002244   0.000602
    15  H   -0.005866   0.000381   0.778787  -0.198134   0.060272  -0.083211
    16  H   -0.001350  -0.000280  -0.198134   0.757296  -0.078092   0.059858
    17  H    0.000398   0.002244   0.060272  -0.078092   0.540380  -0.092037
    18  H    0.000842   0.000602  -0.083211   0.059858  -0.092037   0.550041
    19  H   -0.000046   0.000045   0.000697   0.000080   0.000945  -0.003224
    20  H    0.000421   0.000044   0.011899  -0.004175   0.007821  -0.016255
    21  H    0.000367   0.000002  -0.005773   0.012116  -0.015394   0.008912
    22  H   -0.000520  -0.005680   0.000156   0.000003  -0.000003  -0.000069
    23  H    0.007217   0.000188  -0.000532  -0.000001  -0.000106   0.000027
              19         20         21         22         23
     1  C    0.004025  -0.001905  -0.003113  -0.070295   0.035073
     2  C    0.041840   0.006527  -0.003836   0.005110  -0.007922
     3  C   -0.007410  -0.000306   0.009092   0.037082   0.120421
     4  C    0.000822  -0.000920   0.000085   0.202857   0.241518
     5  C    0.000157  -0.000928  -0.000261   0.086286  -0.299437
     6  C   -0.004987  -0.000294   0.000047  -0.255972  -0.058213
     7  C   -0.038311   0.000058   0.045282   0.007950  -0.022367
     8  C    0.010050  -0.009847  -0.052103  -0.000614   0.001314
     9  N    0.315393   0.340133   0.336725   0.000020  -0.000059
    10  O   -0.000001  -0.000002  -0.000002   0.247982   0.022300
    11  O   -0.000004   0.000019   0.000014   0.002607   0.235294
    12  H    0.000706   0.000073   0.000144   0.001784   0.000909
    13  H   -0.000046   0.000421   0.000367  -0.000520   0.007217
    14  H    0.000045   0.000044   0.000002  -0.005680   0.000188
    15  H    0.000697   0.011899  -0.005773   0.000156  -0.000532
    16  H    0.000080  -0.004175   0.012116   0.000003  -0.000001
    17  H    0.000945   0.007821  -0.015394  -0.000003  -0.000106
    18  H   -0.003224  -0.016255   0.008912  -0.000069   0.000027
    19  H    0.351480  -0.010418  -0.014172  -0.000002   0.000004
    20  H   -0.010418   0.364955  -0.029774  -0.000004  -0.000002
    21  H   -0.014172  -0.029774   0.365536  -0.000001  -0.000003
    22  H   -0.000002  -0.000004  -0.000001   0.449424  -0.000168
    23  H    0.000004  -0.000002  -0.000003  -0.000168   0.430331
 Mulliken charges:
               1
     1  C   -1.604093
     2  C    1.508232
     3  C    0.604643
     4  C   -0.433715
     5  C   -0.180545
     6  C    0.053905
     7  C   -0.523559
     8  C   -0.636986
     9  N   -0.165102
    10  O   -0.290785
    11  O   -0.244151
    12  H    0.087152
    13  H    0.195114
    14  H    0.163045
    15  H    0.155835
    16  H    0.170539
    17  H    0.258995
    18  H    0.253871
    19  H    0.352332
    20  H    0.342880
    21  H    0.346109
    22  H    0.292068
    23  H    0.294216
 Sum of Mulliken charges =   1.00000
 Mulliken charges with hydrogens summed into heavy atoms:
               1
     1  C   -1.516941
     2  C    1.508232
     3  C    0.799757
     4  C   -0.433715
     5  C   -0.180545
     6  C    0.216950
     7  C   -0.197185
     8  C   -0.124120
     9  N    0.876219
    10  O    0.001283
    11  O    0.050065
 Electronic spatial extent (au):  <R**2>=           2360.2195
 Charge=              1.0000 electrons
 Dipole moment (field-independent basis, Debye):
    X=             16.4576    Y=             -2.0344    Z=             -0.2102  Tot=             16.5842
 Quadrupole moment (field-independent basis, Debye-Ang):
   XX=             27.0385   YY=            -56.2264   ZZ=            -64.1615
   XY=             10.0961   XZ=             -0.4338   YZ=             -0.0659
 Traceless Quadrupole moment (field-independent basis, Debye-Ang):
   XX=             58.1549   YY=            -25.1099   ZZ=            -33.0450
   XY=             10.0961   XZ=             -0.4338   YZ=             -0.0659
 Octapole moment (field-independent basis, Debye-Ang**2):
  XXX=            341.4916  YYY=            -20.1880  ZZZ=             -0.8305  XYY=              2.2809
  XXY=             -9.0054  XXZ=             -4.6918  XZZ=             17.3968  YZZ=              3.8100
  YYZ=             -0.4289  XYZ=              0.1293
 Hexadecapole moment (field-independent basis, Debye-Ang**3):
 XXXX=           -423.7590 YYYY=           -460.2715 ZZZZ=            -84.6058 XXXY=             73.9838
 XXXZ=            -11.3952 YYYX=             72.0619 YYYZ=             -0.2112 ZZZX=             -1.3288
 ZZZY=              0.1194 XXYY=           -362.2116 XXZZ=           -359.2549 YYZZ=            -98.0454
 XXYZ=             -1.3129 YYXZ=              0.1575 ZZXY=              7.4972
 N-N= 6.117911211968D+02 E-N=-2.418750645145D+03  KE= 5.156522262198D+02

 **********************************************************************

            Electrostatic Properties Using The SCF Density

 **********************************************************************

       Atomic Center    1 is at   0.148036 -1.147286  0.033081
       Atomic Center    2 is at   0.536688  0.139433  0.034778
       Atomic Center    3 is at  -0.429341  1.075557  0.021472
       Atomic Center    4 is at  -1.737336  0.768779  0.003520
       Atomic Center    5 is at  -2.107415 -0.523924 -0.004364
       Atomic Center    6 is at  -1.154356 -1.469354  0.013137
       Atomic Center    7 is at   1.987949  0.581278  0.045851
       Atomic Center    8 is at   3.049539 -0.523673 -0.019509
       Atomic Center    9 is at   4.379923  0.176046 -0.042290
       Atomic Center   10 is at  -3.426279 -0.853149 -0.030882
       Atomic Center   11 is at  -2.691155  1.738260 -0.017622
       Atomic Center   12 is at   0.886009 -1.963944  0.043934
       Atomic Center   13 is at  -0.144356  2.141127  0.021737
       Atomic Center   14 is at  -1.451171 -2.531765  0.007832
       Atomic Center   15 is at   2.138798  1.264964 -0.824760
       Atomic Center   16 is at   2.152590  1.180522  0.974049
       Atomic Center   17 is at   3.009304 -1.186693  0.874884
       Atomic Center   18 is at   2.952352 -1.133022 -0.947060
       Atomic Center   19 is at   5.146060 -0.533738 -0.078126
       Atomic Center   20 is at   4.434944  0.791550 -0.884955
       Atomic Center   21 is at   4.482674  0.757330  0.820010
       Atomic Center   22 is at  -3.525769 -1.818059 -0.027756
       Atomic Center   23 is at  -3.564014  1.313662 -0.063520
 -----------------------------------------------------------------

              Electrostatic Properties (Atomic Units)

 -----------------------------------------------------------------
    Center     Electric         -------- Electric Field --------
               Potential          X             Y             Z
 -----------------------------------------------------------------
    1 Atom    -14.671731      0.008102     -0.008296      0.000139
    2 Atom    -14.654329      0.006661      0.000541     -0.000023
    3 Atom    -14.677600      0.003812      0.013390     -0.000062
    4 Atom    -14.620334     -0.000292      0.001255     -0.000039
    5 Atom    -14.620195      0.004262     -0.003991      0.000163
    6 Atom    -14.675558     -0.002527     -0.011252     -0.000020
    7 Atom    -14.593693     -0.004772      0.001348      0.000138
    8 Atom    -14.524574     -0.017146     -0.005143      0.000319
    9 Atom    -18.065186     -0.002802     -0.003054      0.000001
   10 Atom    -22.228564     -0.039748      0.027897     -0.000915
   11 Atom    -22.247625      0.004007      0.050291      0.001070
   12 Atom     -0.987229      0.004777     -0.007400      0.000173
   13 Atom     -0.992944     -0.001676      0.008816     -0.000088
   14 Atom     -0.987113     -0.001621     -0.007543      0.000024
   15 Atom     -0.947451      0.001333      0.004871     -0.003326
   16 Atom     -0.947988      0.002099      0.004487      0.004022
   17 Atom     -0.904289      0.002972     -0.002515      0.001690
   18 Atom     -0.904519      0.002526     -0.002428     -0.002107
   19 Atom     -0.751854      0.007510      0.002315     -0.000154
   20 Atom     -0.750276      0.004215      0.003959     -0.001454
   21 Atom     -0.750325      0.004302      0.003914      0.001463
   22 Atom     -0.863871     -0.005754     -0.017342     -0.000072
   23 Atom     -0.886622     -0.019313     -0.005799     -0.000478
 -----------------------------------------------------------------
 -----------------------------------------------------
    Center         ---- Electric Field Gradient ----
                     XX            YY            ZZ
 -----------------------------------------------------
    1 Atom     -500.773227   -500.792786   -501.118862
    2 Atom     -500.845457   -500.557164   -500.968470
    3 Atom     -500.754040   -500.823634   -501.102924
    4 Atom     -500.793750   -500.880825   -501.060921
    5 Atom     -501.126754   -500.574320   -501.039571
    6 Atom     -500.750536   -500.895940   -501.157362
    7 Atom     -500.311461   -500.385250   -500.268385
    8 Atom     -500.854989   -500.409985   -500.239444
    9 Atom     -812.321533   -812.396202   -812.388728
   10 Atom    -1237.016046  -1237.144397  -1234.682835
   11 Atom    -1238.095974  -1236.534990  -1235.024071
   12 Atom       -1.892087     -1.920421     -1.661501
   13 Atom       -1.691612     -2.042590     -1.633802
   14 Atom       -1.703332     -2.047615     -1.636373
   15 Atom       -1.682486     -1.802133     -1.893922
   16 Atom       -1.681160     -1.767130     -1.924531
   17 Atom       -1.657862     -1.774902     -1.889282
   18 Atom       -1.658423     -1.753454     -1.908935
   19 Atom       -1.767143     -1.730038     -1.526468
   20 Atom       -1.522546     -1.675337     -1.812472
   21 Atom       -1.525211     -1.658312     -1.825739
   22 Atom       -1.537745     -2.150899     -1.468790
   23 Atom       -2.026443     -1.626286     -1.463262
 -----------------------------------------------------
 -----------------------------------------------------
    Center         ---- Electric Field Gradient ----
                     XY            XZ            YZ
 -----------------------------------------------------
    1 Atom        0.078909      0.004729      0.000443
    2 Atom       -0.077930      0.001477     -0.002017
    3 Atom       -0.040445      0.005724     -0.001235
    4 Atom        0.288458      0.004902      0.004479
    5 Atom       -0.172173     -0.002074     -0.002619
    6 Atom       -0.017739      0.006677     -0.000856
    7 Atom        0.100591      0.007367     -0.004251
    8 Atom       -0.324635      0.010711      0.005087
    9 Atom        0.017617     -0.000416     -0.000101
   10 Atom       -0.950768     -0.048327     -0.003700
   11 Atom        0.483490     -0.131207     -0.018408
   12 Atom        0.209581     -0.003058      0.003136
   13 Atom       -0.106037     -0.000136      0.000120
   14 Atom       -0.108347     -0.001164     -0.001939
   15 Atom       -0.028890      0.050481      0.185559
   16 Atom       -0.027301     -0.056317     -0.173435
   17 Atom       -0.011941      0.000561      0.182891
   18 Atom       -0.022537     -0.016556     -0.173645
   19 Atom        0.223821      0.011301     -0.010379
   20 Atom       -0.014347      0.019293      0.211901
   21 Atom       -0.025024     -0.036761     -0.204610
   22 Atom       -0.072407     -0.001131      0.002087
   23 Atom       -0.226027     -0.028656     -0.013048
 -----------------------------------------------------
 -----------------------------------------------------
    Center         ---- Electric Field Gradient ----
                   ----       Eigenvalues       ----
 -----------------------------------------------------
    1 Atom     -501.118928   -500.862488   -500.703459
    2 Atom     -500.968491   -500.865165   -500.537434
    3 Atom     -501.103019   -500.842184   -500.735394
    4 Atom     -501.129013   -501.061005   -500.545477
    5 Atom     -501.176074   -501.039525   -500.525047
    6 Atom     -501.157472   -500.898073   -500.748292
    7 Atom     -500.455816   -500.268544   -500.240737
    8 Atom     -501.026232   -500.239615   -500.238571
    9 Atom     -812.400150   -812.388731   -812.317582
   10 Atom    -1238.033534  -1236.128033  -1234.681712
   11 Atom    -1238.238163  -1236.399449  -1235.017424
   12 Atom       -2.116355     -1.696194     -1.661459
   13 Atom       -2.072138     -1.662065     -1.633801
   14 Atom       -2.078884     -1.672083     -1.636353
   15 Atom       -2.048240     -1.676848     -1.653453
   16 Atom       -2.046846     -1.673641     -1.652334
   17 Atom       -2.023871     -1.661758     -1.636416
   18 Atom       -2.023323     -1.661339     -1.636150
   19 Atom       -1.973705     -1.525941     -1.524002
   20 Atom       -1.967921     -1.521471     -1.520963
   21 Atom       -1.967569     -1.521151     -1.520542
   22 Atom       -2.159339     -1.529341     -1.468754
   23 Atom       -2.129713     -1.524504     -1.461774
 -----------------------------------------------------
 -----------------------------------------------------
    Center         ---- Electric Field Gradient ----
                       ( tensor representation )
                   3XX-RR        3YY-RR        3ZZ-RR
 -----------------------------------------------------
    1 Atom        0.121731      0.102172     -0.223903
    2 Atom       -0.055093      0.233200     -0.178107
    3 Atom        0.139493      0.069899     -0.209391
    4 Atom        0.118082      0.031007     -0.149089
    5 Atom       -0.213205      0.339228     -0.126023
    6 Atom        0.184077      0.038672     -0.222749
    7 Atom        0.010238     -0.063551      0.053314
    8 Atom       -0.353517      0.091488      0.262029
    9 Atom        0.047288     -0.027381     -0.019907
   10 Atom       -0.734954     -0.863304      1.598257
   11 Atom       -1.544295      0.016688      1.527607
   12 Atom       -0.067417     -0.095751      0.163168
   13 Atom        0.097723     -0.253255      0.155533
   14 Atom        0.092441     -0.251841      0.159400
   15 Atom        0.110361     -0.009286     -0.101075
   16 Atom        0.109780      0.023811     -0.133591
   17 Atom        0.116153     -0.000887     -0.115267
   18 Atom        0.115181      0.020150     -0.135331
   19 Atom       -0.092593     -0.055489      0.148082
   20 Atom        0.147573     -0.005219     -0.142354
   21 Atom        0.144543      0.011442     -0.155985
   22 Atom        0.181400     -0.431754      0.250355
   23 Atom       -0.321113      0.079045      0.242068
 -----------------------------------------------------
 -----------------------------------------------------
    Center         ---- Electric Field Gradient ----
                       ( tensor representation )
                   ----       Eigenvalues       ----
 -----------------------------------------------------
    1 Atom       -0.223969      0.032470      0.191500
    2 Atom       -0.178128     -0.074802      0.252929
    3 Atom       -0.209486      0.051348      0.158138
    4 Atom       -0.217181     -0.149174      0.366355
    5 Atom       -0.262526     -0.125976      0.388502
    6 Atom       -0.222860      0.036539      0.186320
    7 Atom       -0.134117      0.053155      0.080962
    8 Atom       -0.524760      0.261858      0.262902
    9 Atom       -0.031329     -0.019910      0.051239
   10 Atom       -1.752441      0.153060      1.599381
   11 Atom       -1.686485      0.152230      1.534255
   12 Atom       -0.291686      0.128475      0.163211
   13 Atom       -0.282803      0.127270      0.155533
   14 Atom       -0.283111      0.123691      0.159421
   15 Atom       -0.255393      0.115999      0.139394
   16 Atom       -0.255906      0.117299      0.138606
   17 Atom       -0.249856      0.112257      0.137599
   18 Atom       -0.249719      0.112265      0.137454
   19 Atom       -0.299156      0.148608      0.150547
   20 Atom       -0.297803      0.148647      0.149156
   21 Atom       -0.297815      0.148603      0.149212
   22 Atom       -0.440194      0.189803      0.250391
   23 Atom       -0.424382      0.180826      0.243556
 -----------------------------------------------------
 Calling FoFJK, ICntrl=      2127 FMM=F ISym2X=0 I1Cent= 0 IOpClX= 0 NMat=1 NMatS=1 NMatT=0.
 ***** Axes restored to original set *****
 -------------------------------------------------------------------
 Center     Atomic                   Forces (Hartrees/Bohr)
 Number     Number              X              Y              Z
 -------------------------------------------------------------------
      1        6           0.040317493    0.055239764   -0.015806234
      2        6           0.044874137    0.001696547   -0.000188346
      3        6           0.028985755   -0.064615711    0.017588345
      4        6          -0.033832678   -0.045704510    0.013698557
      5        6          -0.039990158    0.028593084   -0.007729671
      6        6          -0.026876198    0.054420203   -0.014739427
      7        6           0.001683794   -0.010345499    0.002069936
      8        6          -0.023783367    0.002165433   -0.001170000
      9        7           0.014395169    0.008003529   -0.001696383
     10        8          -0.009616325   -0.003226105    0.000961017
     11        8          -0.000650036   -0.002945403    0.001061759
     12        1          -0.005892205   -0.006786406    0.001857215
     13        1          -0.007615518    0.007109899   -0.001858883
     14        1           0.004445433   -0.008646212    0.002269775
     15        1          -0.000615051    0.002720738   -0.010691243
     16        1           0.000074259    0.007204765    0.008307435
     17        1           0.005424445   -0.003697236    0.013877339
     18        1           0.005783434   -0.009538759   -0.010311639
     19        1          -0.003921093   -0.016333613    0.003901952
     20        1           0.001641697    0.003875466   -0.016095860
     21        1           0.000863183    0.010919270    0.012429579
     22        1          -0.000121426   -0.007525689    0.002190775
     23        1           0.004425256   -0.002583554    0.000074000
 -------------------------------------------------------------------
 Cartesian Forces:  Max     0.064615711 RMS     0.019066133

 GradGradGradGradGradGradGradGradGradGradGradGradGradGradGradGradGradGrad
 Berny optimization.
 FormGI is forming the generalized inverse of G from B-inverse, IUseBI=4.
 Internal  Forces:  Max     0.062532136 RMS     0.014059071
 Search for a local minimum.
 Step number   1 out of a maximum of  123
 All quantities printed in internal units (Hartrees-Bohrs-Radians)
 Mixed Optimization -- RFO/linear search
 Second derivative matrix not updated -- first step.
 ITU=  0
     Eigenvalues ---    0.00320   0.00325   0.00540   0.01871   0.02218
     Eigenvalues ---    0.02226   0.02712   0.02728   0.02822   0.02824
     Eigenvalues ---    0.02830   0.02842   0.02848   0.02854   0.03672
     Eigenvalues ---    0.04247   0.05000   0.05315   0.05776   0.05781
     Eigenvalues ---    0.07212   0.09977   0.11280   0.13237   0.16000
     Eigenvalues ---    0.16000   0.16000   0.16000   0.16000   0.16000
     Eigenvalues ---    0.16000   0.16000   0.21874   0.22065   0.22371
     Eigenvalues ---    0.23477   0.24605   0.24999   0.25000   0.25000
     Eigenvalues ---    0.29087   0.30650   0.31849   0.31867   0.32029
     Eigenvalues ---    0.32173   0.32175   0.33341   0.33350   0.33599
     Eigenvalues ---    0.40576   0.40578   0.40582   0.49867   0.50485
     Eigenvalues ---    0.52910   0.53024   0.53030   0.53371   0.56176
     Eigenvalues ---    0.56239   0.56490   0.56684
 RFO step:  Lambda=-4.20693313D-02 EMin= 3.20476288D-03
 Linear search not attempted -- first point.
 Iteration  1 RMS(Cart)=  0.05798783 RMS(Int)=  0.00097084
 Iteration  2 RMS(Cart)=  0.00175680 RMS(Int)=  0.00019507
 Iteration  3 RMS(Cart)=  0.00000124 RMS(Int)=  0.00019507
 Iteration  4 RMS(Cart)=  0.00000000 RMS(Int)=  0.00019507
 Variable       Old X    -DE/DX   Delta X   Delta X   Delta X     New X
                                 (Linear)    (Quad)   (Total)
    R1        2.54005   0.05838   0.00000   0.09665   0.09666   2.63671
    R2        2.53558   0.05565   0.00000   0.09159   0.09160   2.62718
    R3        2.08012  -0.00909   0.00000  -0.02404  -0.02404   2.05608
    R4        2.54217   0.05660   0.00000   0.09369   0.09369   2.63586
    R5        2.86685   0.00213   0.00000   0.00610   0.00610   2.87295
    R6        2.53905   0.04710   0.00000   0.07732   0.07731   2.61636
    R7        2.08441  -0.00989   0.00000  -0.02633  -0.02633   2.05808
    R8        2.54103   0.06253   0.00000   0.10341   0.10341   2.64444
    R9        2.57038   0.00252   0.00000   0.00441   0.00441   2.57479
   R10        2.53707   0.05424   0.00000   0.08939   0.08940   2.62647
   R11        2.56926   0.00897   0.00000   0.01568   0.01568   2.58494
   R12        2.08457  -0.00998   0.00000  -0.02659  -0.02659   2.05798
   R13        2.89823  -0.00369   0.00000  -0.01108  -0.01108   2.88715
   R14        2.11121  -0.01078   0.00000  -0.02990  -0.02990   2.08131
   R15        2.11088  -0.01060   0.00000  -0.02939  -0.02939   2.08149
   R16        2.84091   0.01038   0.00000   0.02865   0.02865   2.86956
   R17        2.10529  -0.01490   0.00000  -0.04096  -0.04096   2.06433
   R18        2.10524  -0.01483   0.00000  -0.04077  -0.04077   2.06447
   R19        1.97478  -0.01578   0.00000  -0.03523  -0.03523   1.93955
   R20        1.97470  -0.01601   0.00000  -0.03574  -0.03574   1.93896
   R21        1.97475  -0.01593   0.00000  -0.03557  -0.03557   1.93918
   R22        1.83309  -0.00750   0.00000  -0.01302  -0.01302   1.82007
   R23        1.83632  -0.00496   0.00000  -0.00867  -0.00867   1.82764
    A1        2.10651  -0.00312   0.00000  -0.00992  -0.00990   2.09662
    A2        2.11339   0.00290   0.00000   0.01157   0.01156   2.12494
    A3        2.06328   0.00023   0.00000  -0.00164  -0.00165   2.06163
    A4        2.04710   0.00725   0.00000   0.02538   0.02538   2.07248
    A5        2.15966  -0.00226   0.00000  -0.00802  -0.00802   2.15164
    A6        2.07642  -0.00499   0.00000  -0.01735  -0.01735   2.05907
    A7        2.14161  -0.00522   0.00000  -0.02047  -0.02049   2.12111
    A8        2.07911   0.00654   0.00000   0.02967   0.02968   2.10879
    A9        2.06246  -0.00132   0.00000  -0.00919  -0.00918   2.05328
   A10        2.08003   0.00090   0.00000   0.00274   0.00271   2.08274
   A11        2.11779  -0.00966   0.00000  -0.03288  -0.03287   2.08492
   A12        2.08533   0.00876   0.00000   0.03018   0.03018   2.11551
   A13        2.07321   0.00384   0.00000   0.01404   0.01404   2.08725
   A14        2.09426  -0.01921   0.00000  -0.06623  -0.06623   2.02803
   A15        2.11572   0.01537   0.00000   0.05218   0.05218   2.16790
   A16        2.11790  -0.00365   0.00000  -0.01175  -0.01173   2.10617
   A17        2.08567   0.00171   0.00000   0.00531   0.00530   2.09097
   A18        2.07962   0.00194   0.00000   0.00644   0.00643   2.08605
   A19        2.03982  -0.00659   0.00000  -0.02408  -0.02402   2.01580
   A20        1.87728   0.00317   0.00000   0.01625   0.01619   1.89347
   A21        1.87896   0.00374   0.00000   0.01936   0.01927   1.89823
   A22        1.89043   0.00116   0.00000   0.00136   0.00146   1.89189
   A23        1.89641   0.00055   0.00000  -0.00223  -0.00213   1.89428
   A24        1.87480  -0.00180   0.00000  -0.01010  -0.01026   1.86455
   A25        1.85237   0.01328   0.00000   0.05405   0.05408   1.90645
   A26        1.94933  -0.00150   0.00000   0.00516   0.00563   1.95496
   A27        1.94891  -0.00183   0.00000   0.00328   0.00368   1.95259
   A28        1.89771  -0.00614   0.00000  -0.03100  -0.03163   1.86608
   A29        1.89565  -0.00566   0.00000  -0.02753  -0.02815   1.86750
   A30        1.91745   0.00181   0.00000  -0.00451  -0.00529   1.91216
   A31        1.91047   0.00828   0.00000   0.04310   0.04257   1.95304
   A32        1.91025   0.00374   0.00000   0.01745   0.01716   1.92740
   A33        1.91072   0.00371   0.00000   0.01725   0.01696   1.92768
   A34        1.91114  -0.00546   0.00000  -0.02482  -0.02533   1.88581
   A35        1.91137  -0.00549   0.00000  -0.02507  -0.02557   1.88580
   A36        1.90985  -0.00477   0.00000  -0.02791  -0.02795   1.88191
   A37        1.91803   0.00420   0.00000   0.02078   0.02078   1.93881
   A38        1.89567   0.00224   0.00000   0.01107   0.01107   1.90673
    D1        0.00476  -0.00015   0.00000  -0.00207  -0.00208   0.00268
    D2       -3.13299  -0.00029   0.00000  -0.00447  -0.00449  -3.13748
    D3       -3.14110   0.00004   0.00000   0.00066   0.00066  -3.14044
    D4        0.00434  -0.00010   0.00000  -0.00174  -0.00176   0.00258
    D5       -0.00115   0.00002   0.00000   0.00012   0.00009  -0.00106
    D6        3.13712   0.00014   0.00000   0.00193   0.00191   3.13903
    D7       -3.13860  -0.00017   0.00000  -0.00257  -0.00258  -3.14118
    D8       -0.00033  -0.00005   0.00000  -0.00076  -0.00076  -0.00109
    D9       -0.00300   0.00015   0.00000   0.00199   0.00200  -0.00100
   D10       -3.14085  -0.00001   0.00000  -0.00021  -0.00021  -3.14107
   D11        3.13493   0.00029   0.00000   0.00429   0.00430   3.13924
   D12       -0.00292   0.00013   0.00000   0.00209   0.00209  -0.00083
   D13        0.05486   0.00004   0.00000   0.00237   0.00234   0.05719
   D14        2.18407  -0.00046   0.00000   0.00048   0.00034   2.18440
   D15       -2.08358   0.00093   0.00000   0.00663   0.00674  -2.07683
   D16       -3.08283  -0.00012   0.00000  -0.00016  -0.00015  -3.08298
   D17       -0.95362  -0.00062   0.00000  -0.00205  -0.00215  -0.95577
   D18        1.06192   0.00076   0.00000   0.00410   0.00426   1.06618
   D19       -0.00243   0.00001   0.00000   0.00014   0.00014  -0.00229
   D20       -3.13470  -0.00035   0.00000  -0.00448  -0.00441  -3.13911
   D21        3.13545   0.00018   0.00000   0.00240   0.00236   3.13782
   D22        0.00318  -0.00018   0.00000  -0.00222  -0.00218   0.00100
   D23        0.00607  -0.00014   0.00000  -0.00214  -0.00216   0.00391
   D24       -3.13448  -0.00008   0.00000  -0.00132  -0.00137  -3.13586
   D25        3.13852   0.00011   0.00000   0.00205   0.00213   3.14064
   D26       -0.00203   0.00017   0.00000   0.00287   0.00291   0.00087
   D27        3.10315   0.00049   0.00000   0.00738   0.00738   3.11053
   D28       -0.02910   0.00017   0.00000   0.00290   0.00290  -0.02620
   D29       -0.00439   0.00015   0.00000   0.00211   0.00212  -0.00227
   D30        3.14052   0.00003   0.00000   0.00030   0.00030   3.14082
   D31        3.13615   0.00007   0.00000   0.00120   0.00119   3.13734
   D32       -0.00213  -0.00005   0.00000  -0.00060  -0.00062  -0.00275
   D33       -3.13559  -0.00008   0.00000  -0.00118  -0.00117  -3.13677
   D34        0.00707  -0.00001   0.00000  -0.00031  -0.00032   0.00674
   D35        3.10833   0.00013   0.00000   0.00212   0.00209   3.11042
   D36       -1.10932  -0.00002   0.00000   0.00041   0.00058  -1.10874
   D37        1.04552  -0.00012   0.00000   0.00076   0.00058   1.04610
   D38        0.98599  -0.00038   0.00000  -0.00358  -0.00362   0.98237
   D39        3.05152  -0.00052   0.00000  -0.00529  -0.00513   3.04639
   D40       -1.07682  -0.00062   0.00000  -0.00494  -0.00513  -1.08195
   D41       -1.04549   0.00083   0.00000   0.00884   0.00886  -1.03663
   D42        1.02004   0.00069   0.00000   0.00713   0.00735   1.02739
   D43       -3.10830   0.00059   0.00000   0.00748   0.00735  -3.10095
   D44        3.13262   0.00005   0.00000   0.00011   0.00008   3.13270
   D45       -1.05588   0.00071   0.00000   0.00678   0.00687  -1.04901
   D46        1.03737  -0.00058   0.00000  -0.00617  -0.00632   1.03105
   D47        1.03325  -0.00237   0.00000  -0.01982  -0.01938   1.01387
   D48        3.12793  -0.00170   0.00000  -0.01316  -0.01258   3.11535
   D49       -1.06200  -0.00299   0.00000  -0.02610  -0.02578  -1.08777
   D50       -1.05279   0.00229   0.00000   0.01954   0.01911  -1.03368
   D51        1.04189   0.00296   0.00000   0.02620   0.02591   1.06780
   D52        3.13515   0.00166   0.00000   0.01326   0.01271  -3.13532
         Item               Value     Threshold  Converged?
 Maximum Force            0.062532     0.000450     NO 
 RMS     Force            0.014059     0.000300     NO 
 Maximum Displacement     0.228544     0.001800     NO 
 RMS     Displacement     0.057454     0.001200     NO 
 Predicted change in Energy=-2.291644D-02
 GradGradGradGradGradGradGradGradGradGradGradGradGradGradGradGradGradGrad

                          Input orientation:                          
 ---------------------------------------------------------------------
 Center     Atomic      Atomic             Coordinates (Angstroms)
 Number     Number       Type             X           Y           Z
 ---------------------------------------------------------------------
      1          6           0       -0.614902    1.128954   -0.244129
      2          6           0       -0.015669   -0.086240    0.089107
      3          6           0       -0.831974   -1.173940    0.399137
      4          6           0       -2.212554   -1.070749    0.383625
      5          6           0       -2.804831    0.153003    0.052122
      6          6           0       -2.000409    1.242492   -0.260366
      7          6           0        1.490361   -0.289042    0.134387
      8          6           0        2.330334    0.958072   -0.136480
      9          7           0        3.802342    0.606192   -0.013043
     10          8           0       -4.172305    0.184786    0.063454
     11          8           0       -2.969423   -2.159662    0.696482
     12          1           0       -0.025298    2.008226   -0.495248
     13          1           0       -0.400252   -2.137977    0.664389
     14          1           0       -2.462528    2.194128   -0.518896
     15          1           0        1.760285   -0.680952    1.127660
     16          1           0        1.765826   -1.062901   -0.599449
     17          1           0        2.178961    1.341901   -1.147958
     18          1           0        2.129249    1.749731    0.589011
     19          1           0        4.406136    1.415760   -0.195971
     20          1           0        4.010271    0.261316    0.930679
     21          1           0        4.051318   -0.133190   -0.679637
     22          1           0       -4.500640    1.057230   -0.178772
     23          1           0       -3.905098   -1.916738    0.666896
 ---------------------------------------------------------------------
                    Distance matrix (angstroms):
                    1          2          3          4          5
     1  C    0.000000
     2  C    1.395285   0.000000
     3  C    2.400882   1.394835   0.000000
     4  C    2.790208   2.425345   1.384518   0.000000
     5  C    2.415789   2.799648   2.402783   1.399378   0.000000
     6  C    1.390246   2.413887   2.763934   2.410564   1.389867
     7  C    2.566343   1.520298   2.499275   3.792725   4.318663
     8  C    2.952152   2.577830   3.851305   5.002445   5.201310
     9  N    4.454068   3.881637   4.981530   6.256872   6.623017
    10  O    3.693396   4.165541   3.621689   2.349362   1.367890
    11  O    4.152531   3.659596   2.372499   1.362520   2.406390
    12  H    1.088031   2.174477   3.402474   3.877705   3.386336
    13  H    3.397693   2.165290   1.089087   2.121849   3.377198
    14  H    2.150306   3.399538   3.852969   3.396536   2.146956
    15  H    3.286195   2.141562   2.737442   4.060662   4.763670
    16  H    3.255510   2.145157   2.785330   4.098048   4.774293
    17  H    2.944134   2.895914   4.217664   5.239468   5.262305
    18  H    2.934255   2.867293   4.165663   5.181559   5.213726
    19  H    5.029453   4.678636   5.873542   7.094062   7.324900
    20  H    4.850277   4.127618   5.078369   6.387269   6.872351
    21  H    4.853481   4.139270   5.108175   6.422276   6.901026
    22  H    3.886950   4.636189   4.332576   3.174890   1.935641
    23  H    4.575106   4.337305   3.172938   1.913281   2.423296
                    6          7          8          9         10
     6  C    0.000000
     7  C    3.832349   0.000000
     8  C    4.341840   1.527814   0.000000
     9  N    5.842770   2.483633   1.518507   0.000000
    10  O    2.437362   5.682898   6.551507   7.986139   0.000000
    11  O    3.664587   4.868762   6.204959   7.349161   2.709997
    12  H    2.131333   2.823314   2.603946   4.104759   4.564509
    13  H    3.852694   2.697013   4.205117   5.064699   4.470429
    14  H    1.089037   4.713623   4.964433   6.482748   2.701836
    15  H    4.446242   1.101383   2.146953   2.669820   6.089142
    16  H    4.428808   1.101478   2.148801   2.697618   6.103897
    17  H    4.273738   2.185990   1.092394   2.112974   6.568486
    18  H    4.246505   2.184367   1.092472   2.114093   6.514203
    19  H    6.409211   3.393705   2.126493   1.026368   8.670193
    20  H    6.205607   2.699429   2.108669   1.026053   8.228759
    21  H    6.220264   2.691732   2.108947   1.026169   8.263247
    22  H    2.508413   6.148383   6.831824   8.316875   0.963139
    23  H    3.803734   5.660736   6.913071   8.138311   2.202713
                   11         12         13         14         15
    11  O    0.000000
    12  H    5.240170   0.000000
    13  H    2.569463   4.321614   0.000000
    14  H    4.548579   2.444424   4.941688   0.000000
    15  H    4.974197   3.613006   2.646783   5.367437   0.000000
    16  H    5.030398   3.556797   2.728546   5.337949   1.768847
    17  H    6.493748   2.393486   4.695369   4.760823   3.073379
    18  H    6.425836   2.425801   4.638786   4.744404   2.516844
    19  H    8.244937   4.480869   6.039092   6.920165   3.626118
    20  H    7.391354   4.622854   5.027944   6.908991   2.447265
    21  H    7.435798   4.608520   5.063798   6.918991   2.969040
    22  H    3.668663   4.586201   5.266256   2.358415   6.627762
    23  H    0.967147   5.639926   3.511823   4.515122   5.816875
                   16         17         18         19         20
    16  H    0.000000
    17  H    2.500923   0.000000
    18  H    3.074966   1.784897   0.000000
    19  H    3.643871   2.423230   2.431450   0.000000
    20  H    3.021982   2.973565   2.422883   1.660961   0.000000
    21  H    2.468657   2.429184   2.974761   1.661046   1.658443
    22  H    6.628764   6.755548   6.710029   8.914006   8.619743
    23  H    5.872992   7.136399   7.061332   8.995926   8.213803
                   21         22         23
    21  H    0.000000
    22  H    8.648928   0.000000
    23  H    8.264305   3.148700   0.000000
 Stoichiometry    C8H12NO2(1+)
 Framework group  C1[X(C8H12NO2)]
 Deg. of freedom    63
 Full point group                 C1      NOp   1
 Largest Abelian subgroup         C1      NOp   1
 Largest concise Abelian subgroup C1      NOp   1
                         Standard orientation:                         
 ---------------------------------------------------------------------
 Center     Atomic      Atomic             Coordinates (Angstroms)
 Number     Number       Type             X           Y           Z
 ---------------------------------------------------------------------
      1          6           0        0.194690   -1.191771    0.030775
      2          6           0        0.561785    0.154357    0.031951
      3          6           0       -0.441514    1.123245    0.017430
      4          6           0       -1.782001    0.777254    0.000836
      5          6           0       -2.140860   -0.575319   -0.004248
      6          6           0       -1.148842   -1.548644    0.012134
      7          6           0        2.007384    0.624821    0.046515
      8          6           0        3.059574   -0.481006   -0.018738
      9          7           0        4.442738    0.145296   -0.040319
     10          8           0       -3.481851   -0.844224   -0.027847
     11          8           0       -2.727132    1.758532   -0.015905
     12          1           0        0.936584   -1.987548    0.042773
     13          1           0       -0.193303    2.183670    0.017369
     14          1           0       -1.429391   -2.600920    0.008890
     15          1           0        2.162548    1.303087   -0.807255
     16          1           0        2.178009    1.217044    0.959431
     17          1           0        3.020506   -1.135387    0.855096
     18          1           0        2.965572   -1.079151   -0.928069
     19          1           0        5.183683   -0.564058   -0.075653
     20          1           0        4.547104    0.755061   -0.858903
     21          1           0        4.590260    0.717614    0.798556
     22          1           0       -3.644998   -1.793442   -0.025498
     23          1           0       -3.605171    1.354874   -0.054410
 ---------------------------------------------------------------------
 Rotational constants (GHZ):      2.9126722      0.5081242      0.4361468
 Standard basis: 6-311++G(d,p) (5D, 7F)
 There are   337 symmetry adapted cartesian basis functions of A   symmetry.
 There are   326 symmetry adapted basis functions of A   symmetry.
   326 basis functions,   504 primitive gaussians,   337 cartesian basis functions
    41 alpha electrons       41 beta electrons
       nuclear repulsion energy       602.0832194752 Hartrees.
 NAtoms=   23 NActive=   23 NUniq=   23 SFac= 1.00D+00 NAtFMM=   60 NAOKFM=F Big=F
 Integral buffers will be    131072 words long.
 Raffenetti 2 integral format.
 Two-electron integral symmetry is turned on.
 One-electron integrals computed using PRISM.
 NBasis=   326 RedAO= T EigKep=  1.24D-06  NBF=   326
 NBsUse=   325 1.00D-06 EigRej=  5.39D-07 NBFU=   325
 Initial guess from the checkpoint file:  "19_Dopaminium.chk"
 B after Tr=     0.000000    0.000000    0.000000
         Rot=    1.000000    0.000029   -0.000024   -0.000727 Ang=   0.08 deg.
 ExpMin= 3.60D-02 ExpMax= 8.59D+03 ExpMxC= 1.30D+03 IAcc=3 IRadAn=         5 AccDes= 0.00D+00
 Harris functional with IExCor=  402 and IRadAn=       5 diagonalized for initial guess.
 HarFok:  IExCor=  402 AccDes= 0.00D+00 IRadAn=         5 IDoV= 1 UseB2=F ITyADJ=14
 ICtDFT=  3500011 ScaDFX=  1.000000  1.000000  1.000000  1.000000
 FoFCou: FMM=F IPFlag=           0 FMFlag=      100000 FMFlg1=           0
         NFxFlg=           0 DoJE=T BraDBF=F KetDBF=T FulRan=T
         wScrn=  0.000000 ICntrl=     500 IOpCl=  0 I1Cent=   200000004 NGrid=           0
         NMat0=    1 NMatS0=      1 NMatT0=    0 NMatD0=    1 NMtDS0=    0 NMtDT0=    0
 Petite list used in FoFCou.
 Keep R1 ints in memory in canonical form, NReq=1440200535.
 Requested convergence on RMS density matrix=1.00D-08 within 128 cycles.
 Requested convergence on MAX density matrix=1.00D-06.
 Requested convergence on             energy=1.00D-06.
 No special actions if energy rises.
 SCF Done:  E(RB3LYP) =  -517.183183607     A.U. after   13 cycles
            NFock= 13  Conv=0.55D-08     -V/T= 2.0041
 Calling FoFJK, ICntrl=      2127 FMM=F ISym2X=0 I1Cent= 0 IOpClX= 0 NMat=1 NMatS=1 NMatT=0.
 ***** Axes restored to original set *****
 -------------------------------------------------------------------
 Center     Atomic                   Forces (Hartrees/Bohr)
 Number     Number              X              Y              Z
 -------------------------------------------------------------------
      1        6           0.007155047    0.001616932   -0.000622710
      2        6           0.000767083    0.005510208   -0.001075823
      3        6           0.004613201   -0.008135295    0.002187400
      4        6          -0.006270632   -0.008018006    0.002647161
      5        6          -0.001606688    0.008603175   -0.002508962
      6        6          -0.007154051    0.002518880   -0.000549214
      7        6           0.002323286   -0.003213731    0.000465977
      8        6          -0.009938556   -0.000917199    0.000082560
      9        7           0.001906683    0.001431006   -0.000370034
     10        8           0.002589693   -0.002356499    0.000546258
     11        8           0.004073886    0.005390777   -0.001369714
     12        1          -0.001857659   -0.001933065    0.000519996
     13        1          -0.001618704    0.002129820   -0.000527338
     14        1           0.000928934   -0.002193440    0.000578588
     15        1          -0.000095278    0.000158072   -0.001940795
     16        1           0.000149899    0.001068594    0.001613830
     17        1           0.001664085    0.000350674    0.001617945
     18        1           0.001794730   -0.000458230   -0.001421910
     19        1          -0.000470229   -0.001653651    0.000393107
     20        1           0.000872335   -0.000173777   -0.001411461
     21        1           0.000753580    0.000515533    0.001372822
     22        1          -0.000700073   -0.000268564    0.000125652
     23        1           0.000119429    0.000027785   -0.000353335
 -------------------------------------------------------------------
 Cartesian Forces:  Max     0.009938556 RMS     0.003093072

 GradGradGradGradGradGradGradGradGradGradGradGradGradGradGradGradGradGrad
 Berny optimization.
 Using GEDIIS/GDIIS optimizer.
 FormGI is forming the generalized inverse of G from B-inverse, IUseBI=4.
 Internal  Forces:  Max     0.007054613 RMS     0.001586426
 Search for a local minimum.
 Step number   2 out of a maximum of  123
 All quantities printed in internal units (Hartrees-Bohrs-Radians)
 Mixed Optimization -- RFO/linear search
 Update second derivatives using D2CorX and points    1    2
 DE= -2.21D-02 DEPred=-2.29D-02 R= 9.63D-01
 TightC=F SS=  1.41D+00  RLast= 3.00D-01 DXNew= 5.0454D-01 8.9902D-01
[...]
    11  O    0.021052   0.000811  -0.000036  -0.000372   7.954689   0.000763
    12  H   -0.040128   0.014223  -0.003262  -0.001994   0.000763   0.544009
    13  H   -0.080642   0.014801  -0.004475  -0.003127  -0.034602  -0.002601
    14  H    0.011921  -0.000959   0.000112  -0.013339  -0.002604  -0.019342
    15  H    0.590583  -0.174830   0.014510  -0.000009   0.000788   0.000603
    16  H    0.421101  -0.051984   0.004019  -0.000092   0.000107  -0.003176
    17  H    0.109494   0.323286  -0.008184   0.000046   0.000061  -0.007132
    18  H    0.059150   0.362848  -0.017588   0.000022  -0.000376   0.000101
    19  H   -0.007760  -0.005608   0.334029   0.000001   0.000003  -0.000019
    20  H    0.014757  -0.015003   0.350866   0.000000   0.000000  -0.000260
    21  H    0.013475  -0.015045   0.350120   0.000003   0.000009   0.000943
    22  H   -0.002175   0.000164  -0.000010   0.246934   0.002716   0.001093
    23  H   -0.007105   0.000377  -0.000004   0.023244   0.256475   0.000468
              13         14         15         16         17         18
     1  C    0.084667  -0.069659  -0.234183   0.227299  -0.073175  -0.005665
     2  C   -0.017257   0.070227  -0.034210  -0.137659  -0.028537  -0.036718
     3  C    0.495692   0.061161   0.141442  -0.122969   0.017858  -0.025103
     4  C   -0.097467  -0.020783   0.014111  -0.023204  -0.014295   0.007795
     5  C   -0.138286  -0.231639   0.010975  -0.012671  -0.006777   0.003325
     6  C    0.044698   0.495928  -0.029562   0.009340   0.006046  -0.011317
     7  C   -0.080642   0.011921   0.590583   0.421101   0.109494   0.059150
     8  C    0.014801  -0.000959  -0.174830  -0.051984   0.323286   0.362848
     9  N   -0.004475   0.000112   0.014510   0.004019  -0.008184  -0.017588
    10  O   -0.003127  -0.013339  -0.000009  -0.000092   0.000046   0.000022
    11  O   -0.034602  -0.002604   0.000788   0.000107   0.000061  -0.000376
    12  H   -0.002601  -0.019342   0.000603  -0.003176  -0.007132   0.000101
    13  H    0.559783   0.002959  -0.018851   0.006089  -0.001207  -0.005523
    14  H    0.002959   0.545795   0.000270   0.001941   0.000889  -0.000227
    15  H   -0.018851   0.000270   0.574955  -0.041709   0.009886  -0.004691
    16  H    0.006089   0.001941  -0.041709   0.536991  -0.000351   0.006630
    17  H   -0.001207   0.000889   0.009886  -0.000351   0.458170  -0.016614
    18  H   -0.005523  -0.000227  -0.004691   0.006630  -0.016614   0.451436
    19  H    0.000392   0.000057   0.000230   0.001540  -0.002548  -0.002852
    20  H    0.000685  -0.000010  -0.004489   0.002356   0.002661  -0.007202
    21  H   -0.000420  -0.000098   0.002011  -0.005881  -0.008308   0.002771
    22  H   -0.000164  -0.002641   0.000010  -0.000097  -0.000008  -0.000015
    23  H    0.004916  -0.000115  -0.000151  -0.000053  -0.000101   0.000052
              19         20         21         22         23
     1  C    0.002305   0.003078  -0.003681  -0.009968   0.011177
     2  C    0.011721  -0.008098  -0.002354  -0.003219  -0.007986
     3  C   -0.001193  -0.000415   0.004313   0.006670   0.135188
     4  C    0.000138  -0.001836   0.002008   0.139669   0.170636
     5  C   -0.000598  -0.000116   0.000544   0.089767  -0.267007
     6  C    0.000395   0.001589  -0.002500  -0.207436  -0.036388
     7  C   -0.007760   0.014757   0.013475  -0.002175  -0.007105
     8  C   -0.005608  -0.015003  -0.015045   0.000164   0.000377
     9  N    0.334029   0.350866   0.350120  -0.000010  -0.000004
    10  O    0.000001   0.000000   0.000003   0.246934   0.023244
    11  O    0.000003   0.000000   0.000009   0.002716   0.256475
    12  H   -0.000019  -0.000260   0.000943   0.001093   0.000468
    13  H    0.000392   0.000685  -0.000420  -0.000164   0.004916
    14  H    0.000057  -0.000010  -0.000098  -0.002641  -0.000115
    15  H    0.000230  -0.004489   0.002011   0.000010  -0.000151
    16  H    0.001540   0.002356  -0.005881  -0.000097  -0.000053
    17  H   -0.002548   0.002661  -0.008308  -0.000008  -0.000101
    18  H   -0.002852  -0.007202   0.002771  -0.000015   0.000052
    19  H    0.352431  -0.012583  -0.013594  -0.000003   0.000004
    20  H   -0.012583   0.360820  -0.026864   0.000000  -0.000006
    21  H   -0.013594  -0.026864   0.364092   0.000002   0.000001
    22  H   -0.000003   0.000000   0.000002   0.444916   0.000915
    23  H    0.000004  -0.000006   0.000001   0.000915   0.415622
 Mulliken charges:
               1
     1  C   -0.738959
     2  C    1.056101
     3  C   -0.225540
     4  C   -0.454597
     5  C   -0.116919
     6  C    0.115539
     7  C   -0.222828
     8  C   -0.647686
     9  N   -0.224748
    10  O   -0.286916
    11  O   -0.225480
    12  H    0.153825
    13  H    0.189942
    14  H    0.170159
    15  H    0.182311
    16  H    0.182431
    17  H    0.238841
    18  H    0.239763
    19  H    0.343511
    20  H    0.340072
    21  H    0.338455
    22  H    0.292880
    23  H    0.299842
 Sum of Mulliken charges =   1.00000
 Mulliken charges with hydrogens summed into heavy atoms:
               1
     1  C   -0.585135
     2  C    1.056101
     3  C   -0.035598
     4  C   -0.454597
     5  C   -0.116919
     6  C    0.285698
     7  C    0.141914
     8  C   -0.169082
     9  N    0.797291
    10  O    0.005965
    11  O    0.074362
 Electronic spatial extent (au):  <R**2>=           2332.8098
 Charge=              1.0000 electrons
 Dipole moment (field-independent basis, Debye):
    X=             14.8954    Y=             -1.3199    Z=             -1.6846  Tot=             15.0484
 Quadrupole moment (field-independent basis, Debye-Ang):
   XX=             28.3503   YY=            -57.0378   ZZ=            -64.0068
   XY=             11.5922   XZ=             -3.8142   YZ=              0.4577
 Traceless Quadrupole moment (field-independent basis, Debye-Ang):
   XX=             59.2484   YY=            -26.1397   ZZ=            -33.1087
   XY=             11.5922   XZ=             -3.8142   YZ=              0.4577
 Octapole moment (field-independent basis, Debye-Ang**2):
  XXX=            300.5834  YYY=            -10.8472  ZZZ=             -8.7447  XYY=              2.4988
  XXY=              5.2925  XXZ=            -36.5222  XZZ=             19.0135  YZZ=              5.4043
  YYZ=             -3.2999  XYZ=             -4.6358
 Hexadecapole moment (field-independent basis, Debye-Ang**3):
 XXXX=           -352.6374 YYYY=           -489.6098 ZZZZ=           -146.0611 XXXY=            155.5539
 XXXZ=           -106.4596 YYYX=             41.7863 YYYZ=              2.5801 ZZZX=            -18.9573
 ZZZY=              0.5646 XXYY=           -328.1615 XXZZ=           -340.9782 YYZZ=           -111.9988
 XXYZ=             -0.0054 YYXZ=             12.4231 ZZXY=              6.7376
 N-N= 6.043780531918D+02 E-N=-2.403541437043D+03  KE= 5.150761940373D+02

 **********************************************************************

            Electrostatic Properties Using The SCF Density

 **********************************************************************

       Atomic Center    1 is at  -0.042480 -1.520298  0.221264
       Atomic Center    2 is at   0.569948 -0.284328  0.425782
       Atomic Center    3 is at  -0.196198  0.885728  0.354087
       Atomic Center    4 is at  -1.555669  0.824642  0.077682
       Atomic Center    5 is at  -2.164199 -0.427601 -0.128415
       Atomic Center    6 is at  -1.409706 -1.589897 -0.054517
       Atomic Center    7 is at   2.058678 -0.192426  0.695179
       Atomic Center    8 is at   2.803276  0.144506 -0.595407
       Atomic Center    9 is at   4.311573  0.283522 -0.338917
       Atomic Center   10 is at  -3.503503 -0.373518 -0.388228
       Atomic Center   11 is at  -2.275899  1.968126  0.018376
       Atomic Center   12 is at   0.529743 -2.438870  0.290005
       Atomic Center   13 is at   0.238608  1.863708  0.532777
       Atomic Center   14 is at  -1.885895 -2.553304 -0.204036
       Atomic Center   15 is at   2.257725  0.579596  1.448031
       Atomic Center   16 is at   2.422873 -1.144313  1.096015
       Atomic Center   17 is at   2.694570 -0.635855 -1.348667
       Atomic Center   18 is at   2.481257  1.095670 -1.018996
       Atomic Center   19 is at   4.825760  0.512806 -1.194439
       Atomic Center   20 is at   4.498474  1.022071  0.346132
       Atomic Center   21 is at   4.701115 -0.586218  0.036836
       Atomic Center   22 is at  -3.888715 -1.252529 -0.471400
       Atomic Center   23 is at  -3.203208  1.753758 -0.154950
 -----------------------------------------------------------------

              Electrostatic Properties (Atomic Units)

 -----------------------------------------------------------------
    Center     Electric         -------- Electric Field --------
               Potential          X             Y             Z
 -----------------------------------------------------------------
    1 Atom    -14.660499     -0.000011     -0.000467      0.000411
    2 Atom    -14.641320     -0.002472     -0.000836      0.000563
    3 Atom    -14.662232      0.000810      0.000519      0.000739
    4 Atom    -14.603607      0.006151     -0.008771      0.000741
    5 Atom    -14.600652      0.011645     -0.000950      0.002212
    6 Atom    -14.660483      0.001044     -0.001558      0.000143
    7 Atom    -14.602388     -0.003954     -0.000856      0.001831
    8 Atom    -14.536454     -0.013469     -0.001879      0.001121
    9 Atom    -18.077365     -0.009025     -0.000777     -0.001788
   10 Atom    -22.223109     -0.027058      0.038138     -0.004925
   11 Atom    -22.239721      0.014429      0.047446      0.005410
   12 Atom     -0.991454      0.009886     -0.016253      0.001304
   13 Atom     -0.986773      0.007463      0.017352      0.003266
   14 Atom     -0.987472     -0.008141     -0.017076     -0.002581
   15 Atom     -0.955994      0.002834      0.012626      0.012646
   16 Atom     -0.955961      0.005664     -0.015822      0.006907
   17 Atom     -0.916300     -0.002407     -0.013491     -0.013195
   18 Atom     -0.916392     -0.006055      0.016408     -0.007541
   19 Atom     -0.760606      0.010468      0.004707     -0.017620
   20 Atom     -0.761536      0.003864      0.015127      0.013990
   21 Atom     -0.761492      0.008019     -0.017816      0.007678
   22 Atom     -0.860979     -0.011670     -0.022938     -0.002576
   23 Atom     -0.880372     -0.024544     -0.003770     -0.004542
 -----------------------------------------------------------------
 -----------------------------------------------------
    Center         ---- Electric Field Gradient ----
                     XX            YY            ZZ
 -----------------------------------------------------
    1 Atom     -500.694285   -500.703665   -501.026660
    2 Atom     -500.728021   -500.482310   -500.834773
    3 Atom     -500.692930   -500.688598   -500.964695
    4 Atom     -500.609364   -500.876283   -500.932766
    5 Atom     -501.013093   -500.441534   -500.877168
    6 Atom     -500.662890   -500.707317   -500.985410
    7 Atom     -500.291376   -500.218659   -500.401301
    8 Atom     -501.351583   -500.483509   -500.531863
    9 Atom     -812.333105   -812.387467   -812.391716
   10 Atom    -1237.511218  -1236.591797  -1234.832390
   11 Atom    -1237.689128  -1236.789210  -1235.106163
   12 Atom       -1.825501     -2.022110     -1.667264
   13 Atom       -1.758968     -2.048324     -1.665807
   14 Atom       -1.771190     -2.039572     -1.660300
   15 Atom       -1.708774     -1.906372     -1.889151
   16 Atom       -1.748544     -2.021974     -1.745951
   17 Atom       -1.703912     -1.906486     -1.886245
   18 Atom       -1.734670     -2.022011     -1.740963
   19 Atom       -1.685392     -1.586387     -1.925864
   20 Atom       -1.576634     -1.832300     -1.792154
   21 Atom       -1.633996     -1.939365     -1.631453
   22 Atom       -1.641246     -2.080172     -1.480284
   23 Atom       -2.105093     -1.545994     -1.485245
 -----------------------------------------------------
 -----------------------------------------------------
    Center         ---- Electric Field Gradient ----
                     XY            XZ            YZ
 -----------------------------------------------------
    1 Atom        0.012217      0.073403      0.020117
    2 Atom       -0.006629      0.018390      0.023993
    3 Atom       -0.025916      0.058418      0.018435
    4 Atom        0.213429      0.082746      0.044559
    5 Atom       -0.040592     -0.032068      0.017861
    6 Atom        0.002853      0.067994      0.017660
    7 Atom       -0.021747      0.077502      0.044773
    8 Atom       -0.078719     -0.157373     -0.010161
    9 Atom        0.005135      0.010473      0.002988
   10 Atom       -0.756996     -0.550790     -0.158986
   11 Atom        0.782445     -0.406604      0.043981
   12 Atom        0.208185     -0.021203      0.023201
   13 Atom       -0.170365     -0.035870     -0.070118
   14 Atom       -0.178783     -0.033945     -0.058057
   15 Atom       -0.062099     -0.052156     -0.209870
   16 Atom        0.129856     -0.049085      0.138200
   17 Atom       -0.026409     -0.025201     -0.221377
   18 Atom        0.103714     -0.048586      0.150265
   19 Atom       -0.057242      0.216205      0.097482
   20 Atom       -0.065437     -0.060247     -0.249798
   21 Atom        0.165064     -0.070271      0.161136
   22 Atom       -0.246984     -0.035051     -0.054210
   23 Atom       -0.115764     -0.118244     -0.024850
 -----------------------------------------------------
 -----------------------------------------------------
    Center         ---- Electric Field Gradient ----
                   ----       Eigenvalues       ----
 -----------------------------------------------------
    1 Atom     -501.043019   -500.710865   -500.670726
    2 Atom     -500.839569   -500.724969   -500.480567
    3 Atom     -500.978600   -500.705605   -500.662018
    4 Atom     -500.994574   -500.951902   -500.471939
    5 Atom     -501.022490   -500.871560   -500.437745
    6 Atom     -501.000117   -500.707041   -500.648459
    7 Atom     -500.451964   -500.251359   -500.208012
    8 Atom     -501.387705   -500.503390   -500.475860
    9 Atom     -812.394214   -812.387332   -812.330742
   10 Atom    -1238.034666  -1236.177227  -1234.723512
   11 Atom    -1238.187378  -1236.357183  -1235.039941
   12 Atom       -2.155993     -1.694603     -1.664279
   13 Atom       -2.140210     -1.680476     -1.652412
   14 Atom       -2.138343     -1.682443     -1.650275
   15 Atom       -2.123595     -1.696248     -1.684454
   16 Atom       -2.129780     -1.699598     -1.687091
   17 Atom       -2.121167     -1.700719     -1.674757
   18 Atom       -2.121136     -1.701146     -1.675361
   19 Atom       -2.078961     -1.560446     -1.558237
   20 Atom       -2.078592     -1.561637     -1.560859
   21 Atom       -2.080371     -1.562644     -1.561799
   22 Atom       -2.196795     -1.531955     -1.472952
   23 Atom       -2.150072     -1.523000     -1.463260
 -----------------------------------------------------
 -----------------------------------------------------
    Center         ---- Electric Field Gradient ----
                       ( tensor representation )
                   3XX-RR        3YY-RR        3ZZ-RR
 -----------------------------------------------------
    1 Atom        0.113918      0.104538     -0.218457
    2 Atom       -0.046320      0.199392     -0.153072
    3 Atom        0.089144      0.093477     -0.182621
    4 Atom        0.196774     -0.070145     -0.126628
    5 Atom       -0.235828      0.335731     -0.099903
    6 Atom        0.122316      0.077889     -0.200205
    7 Atom        0.012403      0.085120     -0.097522
    8 Atom       -0.562598      0.305476      0.257122
    9 Atom        0.037658     -0.016704     -0.020954
   10 Atom       -1.199417     -0.279995      1.479412
   11 Atom       -1.160961     -0.261043      1.422004
   12 Atom        0.012790     -0.183818      0.171028
   13 Atom        0.065398     -0.223958      0.158559
   14 Atom        0.052497     -0.215885      0.163387
   15 Atom        0.125992     -0.071606     -0.054385
   16 Atom        0.090279     -0.183151      0.092872
   17 Atom        0.128302     -0.074271     -0.054031
   18 Atom        0.097878     -0.189463      0.091584
   19 Atom        0.047155      0.146160     -0.193316
   20 Atom        0.157062     -0.098604     -0.058458
   21 Atom        0.100942     -0.204427      0.103485
   22 Atom        0.092654     -0.346272      0.253617
   23 Atom       -0.392983      0.166117      0.226866
 -----------------------------------------------------
 -----------------------------------------------------
    Center         ---- Electric Field Gradient ----
                       ( tensor representation )
                   ----       Eigenvalues       ----
 -----------------------------------------------------
    1 Atom       -0.234815      0.097338      0.137478
    2 Atom       -0.157867     -0.043267      0.201134
    3 Atom       -0.196525      0.076469      0.120056
    4 Atom       -0.188436     -0.145764      0.334199
    5 Atom       -0.245225     -0.094295      0.339520
    6 Atom       -0.214911      0.078164      0.136747
    7 Atom       -0.148185      0.052419      0.095766
    8 Atom       -0.598720      0.285595      0.313125
    9 Atom       -0.023452     -0.016569      0.040021
   10 Atom       -1.722864      0.134575      1.588289
   11 Atom       -1.659210      0.170984      1.488226
   12 Atom       -0.317701      0.143689      0.174012
   13 Atom       -0.315844      0.143890      0.171954
   14 Atom       -0.314656      0.141244      0.173412
   15 Atom       -0.288829      0.138518      0.150311
   16 Atom       -0.290957      0.139225      0.151732
   17 Atom       -0.288953      0.131496      0.157457
   18 Atom       -0.288588      0.131402      0.157187
   19 Atom       -0.346413      0.172102      0.174311
   20 Atom       -0.344896      0.172059      0.172837
   21 Atom       -0.345433      0.172294      0.173139
   22 Atom       -0.462894      0.201945      0.260949
   23 Atom       -0.437961      0.189110      0.248851
 -----------------------------------------------------

 Test job not archived.
 1|1|UNPC-NP-ALMACH|FOpt|RB3LYP|6-311++G(d,p)|C8H12N1O2(1+)|HERA|02-May
 -2018|0||# RB3LYP/6-311++G** Opt Test prop=EFG||Dopaminium||1,1|C,-0.7
 611262297,0.8527669953,-1.1290603939|C,-0.0121424238,-0.051524679,-0.3
 768656794|C,-0.6494121246,-0.839595346,0.5895609338|C,-2.0161723555,-0
 .7245438034,0.8064114543|C,-2.7630957189,0.1919801463,0.0428761123|C,-
 2.1364895553,0.9721813852,-0.9185309641|C,1.486133919,-0.1689955555,-0
 .573608157|C,2.2182401482,0.6484468362,0.4891095552|N,3.7406057304,0.5
 116361777,0.3349685427|O,-4.0968102011,0.2210327322,0.3336052272|O,-2.
 610269758,-1.5000065277,1.742098412|H,-0.289465451,1.4592919941,-1.894
 3078091|H,-0.1056578511,-1.5725839743,1.1764933767|H,-2.7187908073,1.6
 697589644,-1.5114706723|H,1.7930159145,-1.2196148122,-0.5069316759|H,1
 .7588529958,0.1905769902,-1.5714701113|H,2.0002025621,1.7136084115,0.4
 111912468|H,1.986570273,0.3104739108,1.4990305948|H,4.2470206703,1.051
 6211748,1.0426672594|H,4.0294877916,-0.4674495701,0.4222411986|H,4.046
 5255307,0.8385699249,-0.5863936502|H,-4.577336835,0.822418703,-0.24552
 90925|H,-3.5606862243,-1.3196500781,1.750914292||Version=EM64W-G09RevD
 .01|State=1-A|HF=-517.1887928|RMSD=7.431e-009|RMSF=1.160e-005|Dipole=5
 .7438459,1.4054651,-0.2917345|Quadrupole=44.8887738,-22.090981,-22.797
 7928,2.7928284,4.6284925,-1.9574815|PG=C01 [X(C8H12N1O2)]||@


 YOU SHOULDN'T LET PEOPLE DRIVE YOU CRAZY
 WHEN YOU KNOW IT'S WITHIN WALKING DISTANCE.
 Job cpu time:       0 days  0 hours 23 minutes 50.0 seconds.
 File lengths (MBytes):  RWF=     49 Int=      0 D2E=      0 Chk=      8 Scr=      1
 Normal termination of Gaussian 09 at Wed May 02 18:29:06 2018.
