 Entering Link 1 = C:\G09W\l1.exe PID=      3064.
  
 Copyright (c) 1988,1990,1992,1993,1995,1998,2003,2009,2013,
            Gaussian, Inc.  All Rights Reserved.
  
 This is part of the Gaussian(R) 09 program.  It is based on
 the Gaussian(R) 03 system (copyright 2003, Gaussian, Inc.),
 the Gaussian(R) 98 system (copyright 1998, Gaussian, Inc.),
 the Gaussian(R) 94 system (copyright 1995, Gaussian, Inc.),
 the Gaussian 92(TM) system (copyright 1992, Gaussian, Inc.),
 the Gaussian 90(TM) system (copyright 1990, Gaussian, Inc.),
 the Gaussian 88(TM) system (copyright 1988, Gaussian, Inc.),
 the Gaussian 86(TM) system (copyright 1986, Carnegie Mellon
 University), and the Gaussian 82(TM) system (copyright 1983,
 Carnegie Mellon University). Gaussian is a federally registered
 trademark of Gaussian, Inc.
  
 This software contains proprietary and confidential information,
 including trade secrets, belonging to Gaussian, Inc.
  
 This software is provided under written license and may be
 used, copied, transmitted, or stored only in accord with that
 written license.
  
 The following legend is applicable only to US Government
 contracts under FAR:
  
                    RESTRICTED RIGHTS LEGEND
  
 Use, reproduction and disclosure by the US Government is
 subject to restrictions as set forth in subparagraphs (a)
 and (c) of the Commercial Computer Software - Restricted
 Rights clause in FAR 52.227-19.
  
 Gaussian, Inc.
 340 Quinnipiac St., Bldg. 40, Wallingford CT 06492
  
  
 ---------------------------------------------------------------
 Warning -- This program may not be used in any manner that
 competes with the business of Gaussian, Inc. or will provide
 assistance to any competitor of Gaussian, Inc.  The licensee
 of this program is prohibited from giving any competitor of
 Gaussian, Inc. access to this program.  By using this program,
 the user acknowledges that Gaussian, Inc. is engaged in the
 business of creating and licensing software in the field of
 computational chemistry and represents and warrants to the
 licensee that it is not a competitor of Gaussian, Inc. and that
 it will not use this program in any manner prohibited above.
 ---------------------------------------------------------------
  

 Cite this work as:
 Gaussian 09, Revision D.01,
 M. J. Frisch, G. W. Trucks, H. B. Schlegel, G. E. Scuseria, 
 M. A. Robb, J. R. Cheeseman, G. Scalmani, V. Barone, B. Mennucci, 
 G. A. Petersson, H. Nakatsuji, M. Caricato, X. Li, H. P. Hratchian, 
 A. F. Izmaylov, J. Bloino, G. Zheng, J. L. Sonnenberg, M. Hada, 
 M. Ehara, K. Toyota, R. Fukuda, J. Hasegawa, M. Ishida, T. Nakajima, 
 Y. Honda, O. Kitao, H. Nakai, T. Vreven, J. A. Montgomery, Jr., 
 J. E. Peralta, F. Ogliaro, M. Bearpark, J. J. Heyd, E. Brothers, 
 K. N. Kudin, V. N. Staroverov, T. Keith, R. Kobayashi, J. Normand, 
 K. Raghavachari, A. Rendell, J. C. Burant, S. S. Iyengar, J. Tomasi, 
 M. Cossi, N. Rega, J. M. Millam, M. Klene, J. E. Knox, J. B. Cross, 
 V. Bakken, C. Adamo, J. Jaramillo, R. Gomperts, R. E. Stratmann, 
 O. Yazyev, A. J. Austin, R. Cammi, C. Pomelli, J. W. Ochterski, 
 R. L. Martin, K. Morokuma, V. G. Zakrzewski, G. A. Voth, 
 P. Salvador, J. J. Dannenberg, S. Dapprich, A. D. Daniels, 
 O. Farkas, J. B. Foresman, J. V. Ortiz, J. Cioslowski, 
 and D. J. Fox, Gaussian, Inc., Wallingford CT, 2013.
 
 ******************************************
 Gaussian 09:  EM64W-G09RevD.01 13-Apr-2013
                03-May-2018 
 ******************************************
 %Chk=22_4_aminomethylpyridine.chk
 %Mem=64GB
 %NProcShared=20
 Will use up to   20 processors via shared memory.
 -------------------------------------
 # RB3LYP/6-311++G** Opt Test prop=EFG
 -------------------------------------
 1/14=-1,18=20,19=15,26=3,38=1/1,3;
 2/9=110,12=2,17=6,18=5,40=1/2;
 3/5=4,6=6,7=1111,11=2,16=1,25=1,30=1,71=1,74=-5,116=1/1,2,3;
 4//1;
 5/5=2,38=5/2;
 6/7=2,8=2,9=2,10=2,14=1,28=1/1,2;
 7//1,2,3,16;
 1/14=-1,18=20,19=15,26=3/3(2);
 2/9=110/2;
 99//99;
 2/9=110/2;
 3/5=4,6=6,7=1111,11=2,16=1,25=1,30=1,71=1,74=-5,116=1/1,2,3;
 4/5=5,16=3,69=1/1;
 5/5=2,38=5/2;
 7//1,2,3,16;
 1/14=-1,18=20,19=15,26=3/3(-5);
 2/9=110/2;
 6/7=2,8=2,9=2,10=2,14=1,19=2,28=1/1,2;
 99/9=1/99;
 ---------------------
 4-aminomethylpyridine
 ---------------------
 Symbolic Z-matrix:
 Charge =  0 Multiplicity = 1
 C                    0     0.6542    1.7774   -0.4007 
 C                    0     0.9291    0.5952    0.1732 
 C                    0     0.2019   -0.481    -0.1724 
 C                    0    -0.7661   -0.2891   -1.0848 
 C                    0    -0.9481    0.9418   -1.5896 
 N                    0    -0.2589    1.951    -1.2599 
 C                    0     0.4683   -1.8321    0.4423 
 N                    0    -0.0072   -1.8298    1.8326 
 H                    0     1.2415    2.6708   -0.1281 
 H                    0     1.7386    0.5118    0.9162 
 H                    0    -1.4045   -1.1236   -1.4162 
 H                    0    -1.7386    1.1174   -2.3391 
 H                    0    -0.0312   -2.6532   -0.1203 
 H                    0     1.5631   -2.0399    0.4314 
 H                    0     0.3282   -2.6708    2.3329 
 H                    0     0.4013   -1.0252    2.3391 
 

 GradGradGradGradGradGradGradGradGradGradGradGradGradGradGradGradGradGrad
 Berny optimization.
 Initialization pass.
                           ----------------------------
                           !    Initial Parameters    !
                           ! (Angstroms and Degrees)  !
 --------------------------                            --------------------------
 ! Name  Definition              Value          Derivative Info.                !
 --------------------------------------------------------------------------------
 ! R1    R(1,2)                  1.3426         estimate D2E/DX2                !
 ! R2    R(1,6)                  1.2657         estimate D2E/DX2                !
 ! R3    R(1,9)                  1.1034         estimate D2E/DX2                !
 ! R4    R(2,3)                  1.344          estimate D2E/DX2                !
 ! R5    R(2,10)                 1.102          estimate D2E/DX2                !
 ! R6    R(3,4)                  1.344          estimate D2E/DX2                !
 ! R7    R(3,7)                  1.5081         estimate D2E/DX2                !
 ! R8    R(4,5)                  1.3428         estimate D2E/DX2                !
 ! R9    R(4,11)                 1.1017         estimate D2E/DX2                !
 ! R10   R(5,6)                  1.2658         estimate D2E/DX2                !
 ! R11   R(5,12)                 1.1034         estimate D2E/DX2                !
 ! R12   R(7,8)                  1.4694         estimate D2E/DX2                !
 ! R13   R(7,13)                 1.1137         estimate D2E/DX2                !
 ! R14   R(7,14)                 1.1144         estimate D2E/DX2                !
 ! R15   R(8,15)                 1.0344         estimate D2E/DX2                !
 ! R16   R(8,16)                 1.0348         estimate D2E/DX2                !
 ! A1    A(2,1,6)              123.9618         estimate D2E/DX2                !
 ! A2    A(2,1,9)              119.8933         estimate D2E/DX2                !
 ! A3    A(6,1,9)              116.1449         estimate D2E/DX2                !
 ! A4    A(1,2,3)              118.9709         estimate D2E/DX2                !
 ! A5    A(1,2,10)             120.3496         estimate D2E/DX2                !
 ! A6    A(3,2,10)             120.6794         estimate D2E/DX2                !
 ! A7    A(2,3,4)              116.7385         estimate D2E/DX2                !
 ! A8    A(2,3,7)              121.1301         estimate D2E/DX2                !
 ! A9    A(4,3,7)              122.1313         estimate D2E/DX2                !
 ! A10   A(3,4,5)              118.9286         estimate D2E/DX2                !
 ! A11   A(3,4,11)             120.891          estimate D2E/DX2                !
 ! A12   A(5,4,11)             120.1803         estimate D2E/DX2                !
 ! A13   A(4,5,6)              123.9968         estimate D2E/DX2                !
 ! A14   A(4,5,12)             119.891          estimate D2E/DX2                !
 ! A15   A(6,5,12)             116.1122         estimate D2E/DX2                !
 ! A16   A(1,6,5)              117.4033         estimate D2E/DX2                !
 ! A17   A(3,7,8)              109.0931         estimate D2E/DX2                !
 ! A18   A(3,7,13)             112.0496         estimate D2E/DX2                !
 ! A19   A(3,7,14)             109.6707         estimate D2E/DX2                !
 ! A20   A(8,7,13)             109.5122         estimate D2E/DX2                !
 ! A21   A(8,7,14)             109.1149         estimate D2E/DX2                !
 ! A22   A(13,7,14)            107.3502         estimate D2E/DX2                !
 ! A23   A(7,8,15)             110.5742         estimate D2E/DX2                !
 ! A24   A(7,8,16)             109.6698         estimate D2E/DX2                !
 ! A25   A(15,8,16)            105.5108         estimate D2E/DX2                !
 ! D1    D(6,1,2,3)              0.0047         estimate D2E/DX2                !
 ! D2    D(6,1,2,10)          -179.9579         estimate D2E/DX2                !
 ! D3    D(9,1,2,3)            179.9891         estimate D2E/DX2                !
 ! D4    D(9,1,2,10)             0.0264         estimate D2E/DX2                !
 ! D5    D(2,1,6,5)              0.0268         estimate D2E/DX2                !
 ! D6    D(9,1,6,5)           -179.9581         estimate D2E/DX2                !
 ! D7    D(1,2,3,4)             -0.0272         estimate D2E/DX2                !
 ! D8    D(1,2,3,7)           -179.9599         estimate D2E/DX2                !
 ! D9    D(10,2,3,4)           179.9354         estimate D2E/DX2                !
 ! D10   D(10,2,3,7)             0.0027         estimate D2E/DX2                !
 ! D11   D(2,3,4,5)              0.0191         estimate D2E/DX2                !
 ! D12   D(2,3,4,11)          -179.8798         estimate D2E/DX2                !
 ! D13   D(7,3,4,5)            179.9511         estimate D2E/DX2                !
 ! D14   D(7,3,4,11)             0.0521         estimate D2E/DX2                !
 ! D15   D(2,3,7,8)             72.8468         estimate D2E/DX2                !
 ! D16   D(2,3,7,13)          -165.7173         estimate D2E/DX2                !
 ! D17   D(2,3,7,14)           -46.6083         estimate D2E/DX2                !
 ! D18   D(4,3,7,8)           -107.0822         estimate D2E/DX2                !
 ! D19   D(4,3,7,13)            14.3537         estimate D2E/DX2                !
 ! D20   D(4,3,7,14)           133.4627         estimate D2E/DX2                !
 ! D21   D(3,4,5,6)              0.013          estimate D2E/DX2                !
 ! D22   D(3,4,5,12)          -179.9621         estimate D2E/DX2                !
 ! D23   D(11,4,5,6)           179.9126         estimate D2E/DX2                !
 ! D24   D(11,4,5,12)           -0.0625         estimate D2E/DX2                !
 ! D25   D(4,5,6,1)             -0.0358         estimate D2E/DX2                !
 ! D26   D(12,5,6,1)           179.9402         estimate D2E/DX2                !
 ! D27   D(3,7,8,15)          -168.7883         estimate D2E/DX2                !
 ! D28   D(3,7,8,16)           -52.8429         estimate D2E/DX2                !
 ! D29   D(13,7,8,15)           68.2465         estimate D2E/DX2                !
 ! D30   D(13,7,8,16)         -175.808          estimate D2E/DX2                !
 ! D31   D(14,7,8,15)          -48.9892         estimate D2E/DX2                !
 ! D32   D(14,7,8,16)           66.9562         estimate D2E/DX2                !
 --------------------------------------------------------------------------------
 Trust Radius=3.00D-01 FncErr=1.00D-07 GrdErr=1.00D-06
 Number of steps in this run=     83 maximum allowed number of steps=    100.
 GradGradGradGradGradGradGradGradGradGradGradGradGradGradGradGradGradGrad

                          Input orientation:                          
 ---------------------------------------------------------------------
 Center     Atomic      Atomic             Coordinates (Angstroms)
 Number     Number       Type             X           Y           Z
 ---------------------------------------------------------------------
      1          6           0        0.654200    1.777400   -0.400700
      2          6           0        0.929100    0.595200    0.173200
      3          6           0        0.201900   -0.481000   -0.172400
      4          6           0       -0.766100   -0.289100   -1.084800
      5          6           0       -0.948100    0.941800   -1.589600
      6          7           0       -0.258900    1.951000   -1.259900
      7          6           0        0.468300   -1.832100    0.442300
      8          7           0       -0.007200   -1.829800    1.832600
      9          1           0        1.241500    2.670800   -0.128100
     10          1           0        1.738600    0.511800    0.916200
     11          1           0       -1.404500   -1.123600   -1.416200
     12          1           0       -1.738600    1.117400   -2.339100
     13          1           0       -0.031200   -2.653200   -0.120300
     14          1           0        1.563100   -2.039900    0.431400
     15          1           0        0.328200   -2.670800    2.332900
     16          1           0        0.401300   -1.025200    2.339100
 ---------------------------------------------------------------------
                    Distance matrix (angstroms):
                    1          2          3          4          5
     1  C    0.000000
     2  C    1.342583   0.000000
     3  C    2.314534   1.344048   0.000000
     4  C    2.599167   2.288723   1.343995   0.000000
     5  C    2.163117   2.598360   2.314156   1.342781   0.000000
     6  N    1.265746   2.302892   2.703630   2.303467   1.265774
     7  C    3.711293   2.485264   1.508077   2.497324   3.718780
     8  N    4.293829   3.083973   2.425492   3.385396   4.503167
     9  H    1.103357   2.120493   3.319122   3.702262   3.149567
    10  H    2.124122   1.101950   2.128884   3.304386   3.698958
    11  H    3.699363   3.305473   2.130844   1.101713   2.122321
    12  H    3.149363   3.701482   3.318887   2.120676   1.103393
    13  H    4.492061   3.400062   2.185292   2.656936   3.990435
    14  H    4.011268   2.722568   2.155831   3.284712   4.391025
    15  H    5.231188   3.961331   3.329820   4.307048   5.483231
    16  H    3.927471   2.755974   2.577508   3.691579   4.596156
                    6          7          8          9         10
     6  N    0.000000
     7  C    4.211668   0.000000
     8  N    4.890947   1.469367   0.000000
     9  H    2.012532   4.604270   5.065471   0.000000
    10  H    3.285835   2.707787   3.061159   2.449276   0.000000
    11  H    3.284813   2.731918   3.606365   4.801873   4.241898
    12  H    2.012231   4.615858   5.393219   4.022756   4.801526
    13  H    4.748599   1.113654   2.119524   5.474012   3.771439
    14  H    4.701857   1.114400   2.115028   4.754699   2.603268
    15  H    5.883361   2.073021   1.034444   5.951750   3.758352
    16  H    4.716612   2.062384   1.034793   4.522547   2.485032
                   11         12         13         14         15
    11  H    0.000000
    12  H    2.446518   0.000000
    13  H    2.430018   4.696351   0.000000
    14  H    3.613846   5.342793   1.795077   0.000000
    15  H    4.410423   6.360008   2.479449   2.353447   0.000000
    16  H    4.168078   5.572743   2.980954   2.453307   1.647234
                   16
    16  H    0.000000
 Stoichiometry    C6H8N2
 Framework group  C1[X(C6H8N2)]
 Deg. of freedom    42
 Full point group                 C1      NOp   1
 Largest Abelian subgroup         C1      NOp   1
 Largest concise Abelian subgroup C1      NOp   1
                         Standard orientation:                         
 ---------------------------------------------------------------------
 Center     Atomic      Atomic             Coordinates (Angstroms)
 Number     Number       Type             X           Y           Z
 ---------------------------------------------------------------------
      1          6           0       -1.494208   -1.157209    0.012527
      2          6           0       -0.174161   -1.067803    0.240583
      3          6           0        0.402763    0.146003    0.257897
      4          6           0       -0.401265    1.200831    0.040642
      5          6           0       -1.708968    0.986893   -0.176629
      6          7           0       -2.245812   -0.159308   -0.190940
      7          6           0        1.881579    0.302852    0.508489
      8          7           0        2.620586   -0.144460   -0.680132
      9          1           0       -1.983464   -2.146001   -0.005186
     10          1           0        0.424469   -1.977331    0.409981
     11          1           0        0.000050    2.226848    0.037892
     12          1           0       -2.383348    1.841308   -0.357358
     13          1           0        2.156491    1.356298    0.742796
     14          1           0        2.182379   -0.321128    1.381447
     15          1           0        3.630499   -0.225182   -0.471243
     16          1           0        2.315073   -1.097848   -0.941873
 ---------------------------------------------------------------------
 Rotational constants (GHZ):      5.2204783      1.5364632      1.2826416
 Standard basis: 6-311++G(d,p) (5D, 7F)
 There are   240 symmetry adapted cartesian basis functions of A   symmetry.
 There are   232 symmetry adapted basis functions of A   symmetry.
   232 basis functions,   360 primitive gaussians,   240 cartesian basis functions
    29 alpha electrons       29 beta electrons
       nuclear repulsion energy       353.1315018245 Hartrees.
 NAtoms=   16 NActive=   16 NUniq=   16 SFac= 1.00D+00 NAtFMM=   60 NAOKFM=F Big=F
 Integral buffers will be    131072 words long.
 Raffenetti 2 integral format.
 Two-electron integral symmetry is turned on.
 One-electron integrals computed using PRISM.
 NBasis=   232 RedAO= T EigKep=  3.27D-06  NBF=   232
 NBsUse=   232 1.00D-06 EigRej= -1.00D+00 NBFU=   232
 ExpMin= 3.60D-02 ExpMax= 6.29D+03 ExpMxC= 9.49D+02 IAcc=3 IRadAn=         5 AccDes= 0.00D+00
 Harris functional with IExCor=  402 and IRadAn=       5 diagonalized for initial guess.
 HarFok:  IExCor=  402 AccDes= 0.00D+00 IRadAn=         5 IDoV= 1 UseB2=F ITyADJ=14
 ICtDFT=  3500011 ScaDFX=  1.000000  1.000000  1.000000  1.000000
 FoFCou: FMM=F IPFlag=           0 FMFlag=      100000 FMFlg1=           0
         NFxFlg=           0 DoJE=T BraDBF=F KetDBF=T FulRan=T
         wScrn=  0.000000 ICntrl=     500 IOpCl=  0 I1Cent=   200000004 NGrid=           0
         NMat0=    1 NMatS0=      1 NMatT0=    0 NMatD0=    1 NMtDS0=    0 NMtDT0=    0
 Petite list used in FoFCou.
 Keep R1 ints in memory in canonical form, NReq=372466488.
 Requested convergence on RMS density matrix=1.00D-08 within 128 cycles.
 Requested convergence on MAX density matrix=1.00D-06.
 Requested convergence on             energy=1.00D-06.
 No special actions if energy rises.
 SCF Done:  E(RB3LYP) =  -343.016983126     A.U. after   14 cycles
            NFock= 14  Conv=0.48D-08     -V/T= 2.0019

 **********************************************************************

            Population analysis using the SCF density.

 **********************************************************************

 Orbital symmetries:
       Occupied  (A) (A) (A) (A) (A) (A) (A) (A) (A) (A) (A) (A)
                 (A) (A) (A) (A) (A) (A) (A) (A) (A) (A) (A) (A)
                 (A) (A) (A) (A) (A)
       Virtual   (A) (A) (A) (A) (A) (A) (A) (A) (A) (A) (A) (A)
                 (A) (A) (A) (A) (A) (A) (A) (A) (A) (A) (A) (A)
                 (A) (A) (A) (A) (A) (A) (A) (A) (A) (A) (A) (A)
                 (A) (A) (A) (A) (A) (A) (A) (A) (A) (A) (A) (A)
                 (A) (A) (A) (A) (A) (A) (A) (A) (A) (A) (A) (A)
                 (A) (A) (A) (A) (A) (A) (A) (A) (A) (A) (A) (A)
                 (A) (A) (A) (A) (A) (A) (A) (A) (A) (A) (A) (A)
                 (A) (A) (A) (A) (A) (A) (A) (A) (A) (A) (A) (A)
                 (A) (A) (A) (A) (A) (A) (A) (A) (A) (A) (A) (A)
                 (A) (A) (A) (A) (A) (A) (A) (A) (A) (A) (A) (A)
                 (A) (A) (A) (A) (A) (A) (A) (A) (A) (A) (A) (A)
                 (A) (A) (A) (A) (A) (A) (A) (A) (A) (A) (A) (A)
                 (A) (A) (A) (A) (A) (A) (A) (A) (A) (A) (A) (A)
                 (A) (A) (A) (A) (A) (A) (A) (A) (A) (A) (A) (A)
                 (A) (A) (A) (A) (A) (A) (A) (A) (A) (A) (A) (A)
                 (A) (A) (A) (A) (A) (A) (A) (A) (A) (A) (A) (A)
                 (A) (A) (A) (A) (A) (A) (A) (A) (A) (A) (A)
 The electronic state is 1-A.
 Alpha  occ. eigenvalues --  -14.31002 -14.29965 -10.21534 -10.19966 -10.19841
 Alpha  occ. eigenvalues --  -10.19280 -10.17727 -10.17495  -0.99141  -0.90092
 Alpha  occ. eigenvalues --   -0.83300  -0.78188  -0.69537  -0.65280  -0.61206
 Alpha  occ. eigenvalues --   -0.53783  -0.51969  -0.48660  -0.46469  -0.46139
 Alpha  occ. eigenvalues --   -0.43575  -0.42627  -0.41201  -0.38627  -0.36350
 Alpha  occ. eigenvalues --   -0.30369  -0.27984  -0.26020  -0.25255
 Alpha virt. eigenvalues --   -0.03249  -0.01695  -0.01294   0.00184   0.00527
 Alpha virt. eigenvalues --    0.01470   0.02997   0.03277   0.04616   0.05629
 Alpha virt. eigenvalues --    0.05982   0.06989   0.07174   0.08190   0.09009
 Alpha virt. eigenvalues --    0.10046   0.10753   0.11012   0.11484   0.12125
 Alpha virt. eigenvalues --    0.12630   0.12913   0.13246   0.13995   0.14403
 Alpha virt. eigenvalues --    0.14793   0.15323   0.15799   0.16397   0.17016
 Alpha virt. eigenvalues --    0.17575   0.17756   0.18278   0.20258   0.20402
 Alpha virt. eigenvalues --    0.21735   0.22172   0.22945   0.23970   0.24751
 Alpha virt. eigenvalues --    0.24939   0.25687   0.25862   0.26711   0.27633
 Alpha virt. eigenvalues --    0.28736   0.29091   0.30408   0.30796   0.31918
 Alpha virt. eigenvalues --    0.32601   0.32728   0.33639   0.35752   0.39292
 Alpha virt. eigenvalues --    0.39458   0.40510   0.49713   0.51126   0.52615
 Alpha virt. eigenvalues --    0.53517   0.55302   0.55675   0.56602   0.56730
 Alpha virt. eigenvalues --    0.59316   0.59623   0.60519   0.61519   0.62400
 Alpha virt. eigenvalues --    0.64526   0.64941   0.66277   0.66482   0.69306
 Alpha virt. eigenvalues --    0.70577   0.73122   0.75334   0.75958   0.76923
 Alpha virt. eigenvalues --    0.78322   0.81887   0.83639   0.84617   0.85992
 Alpha virt. eigenvalues --    0.87041   0.89761   0.90015   0.91278   0.91727
 Alpha virt. eigenvalues --    0.93410   0.96736   0.98337   0.99047   1.01968
 Alpha virt. eigenvalues --    1.04894   1.06284   1.07737   1.09448   1.10266
 Alpha virt. eigenvalues --    1.12088   1.21638   1.24340   1.28348   1.29374
 Alpha virt. eigenvalues --    1.32908   1.34499   1.44642   1.47222   1.50686
 Alpha virt. eigenvalues --    1.53107   1.56187   1.56689   1.59823   1.61816
 Alpha virt. eigenvalues --    1.62891   1.64833   1.65303   1.67259   1.69683
 Alpha virt. eigenvalues --    1.70070   1.72332   1.74045   1.76232   1.76490
 Alpha virt. eigenvalues --    1.78117   1.82812   1.84470   1.90088   1.91489
 Alpha virt. eigenvalues --    1.92621   1.95871   1.99018   2.00370   2.03011
 Alpha virt. eigenvalues --    2.04298   2.08956   2.11171   2.13635   2.16640
 Alpha virt. eigenvalues --    2.18285   2.28447   2.30752   2.33369   2.37072
 Alpha virt. eigenvalues --    2.42419   2.45533   2.47451   2.48667   2.51651
 Alpha virt. eigenvalues --    2.56801   2.60845   2.63146   2.64615   2.65400
 Alpha virt. eigenvalues --    2.67629   2.73256   2.73751   2.74811   2.75797
 Alpha virt. eigenvalues --    2.77325   2.78736   2.80841   2.82938   2.86166
 Alpha virt. eigenvalues --    2.88586   2.91362   2.92804   2.94473   3.02589
 Alpha virt. eigenvalues --    3.05638   3.06213   3.06856   3.10669   3.14884
 Alpha virt. eigenvalues --    3.23685   3.33381   3.45784   3.49481   3.51518
 Alpha virt. eigenvalues --    3.65013   3.65298   3.72971   3.76544   3.82530
 Alpha virt. eigenvalues --    3.95900   3.99307   4.08966   4.12731   4.31733
 Alpha virt. eigenvalues --    4.44966   4.53745   4.66590   4.79600   5.34670
 Alpha virt. eigenvalues --   23.68055  23.84256  24.02667  24.16646  24.27431
 Alpha virt. eigenvalues --   24.34156  35.55662  35.81052
          Condensed to atoms (all electrons):
               1          2          3          4          5          6
     1  C    6.962437  -1.670757   0.887687  -0.472236   0.638391  -0.018830
     2  C   -1.670757  10.989705  -3.723697  -0.453364  -0.583581   0.264879
     3  C    0.887687  -3.723697  11.494383  -1.204444   0.190396   0.039800
     4  C   -0.472236  -0.453364  -1.204444   8.399929  -0.680917   0.212632
     5  C    0.638391  -0.583581   0.190396  -0.680917   6.454646   0.006691
     6  N   -0.018830   0.264879   0.039800   0.212632   0.006691   6.778253
     7  C   -0.388912   0.531655  -1.664088   0.230258  -0.186407   0.052271
     8  N    0.010126   0.267583  -0.344605  -0.026659   0.002363  -0.002510
     9  H    0.572987  -0.185257   0.010378  -0.076388   0.071898  -0.152108
    10  H   -0.054687   0.265264  -0.046905   0.089845  -0.007253   0.008127
    11  H   -0.008466   0.065617  -0.003494   0.248808   0.004636   0.008951
    12  H    0.062382  -0.051412   0.000395  -0.196760   0.569278  -0.152449
    13  H   -0.035210   0.085700  -0.300254   0.030674   0.009440   0.000782
    14  H    0.067205  -0.264792   0.396551  -0.034769  -0.006033   0.000915
    15  H   -0.002029   0.022553  -0.013430   0.013418  -0.000324  -0.000049
    16  H    0.000378   0.058431  -0.119954  -0.024108  -0.004365   0.000015
               7          8          9         10         11         12
     1  C   -0.388912   0.010126   0.572987  -0.054687  -0.008466   0.062382
     2  C    0.531655   0.267583  -0.185257   0.265264   0.065617  -0.051412
     3  C   -1.664088  -0.344605   0.010378  -0.046905  -0.003494   0.000395
     4  C    0.230258  -0.026659  -0.076388   0.089845   0.248808  -0.196760
     5  C   -0.186407   0.002363   0.071898  -0.007253   0.004636   0.569278
     6  N    0.052271  -0.002510  -0.152108   0.008127   0.008951  -0.152449
     7  C    7.107778   0.189956   0.008948   0.053035  -0.000212   0.014286
     8  N    0.189956   6.644012   0.002133  -0.010216   0.003558   0.000882
     9  H    0.008948   0.002133   0.597476  -0.009859   0.000656   0.005310
    10  H    0.053035  -0.010216  -0.009859   0.543262  -0.001818   0.000976
    11  H   -0.000212   0.003558   0.000656  -0.001818   0.523675  -0.008798
    12  H    0.014286   0.000882   0.005310   0.000976  -0.008798   0.595777
    13  H    0.538870  -0.032479   0.000026   0.005010   0.006057   0.000769
    14  H    0.215971  -0.124621  -0.000451  -0.015364  -0.002324  -0.000974
    15  H   -0.057108   0.380641   0.000209  -0.000908   0.000631   0.000160
    16  H    0.034374   0.400311   0.000271  -0.000803   0.000126  -0.000185
              13         14         15         16
     1  C   -0.035210   0.067205  -0.002029   0.000378
     2  C    0.085700  -0.264792   0.022553   0.058431
     3  C   -0.300254   0.396551  -0.013430  -0.119954
     4  C    0.030674  -0.034769   0.013418  -0.024108
     5  C    0.009440  -0.006033  -0.000324  -0.004365
     6  N    0.000782   0.000915  -0.000049   0.000015
     7  C    0.538870   0.215971  -0.057108   0.034374
     8  N   -0.032479  -0.124621   0.380641   0.400311
     9  H    0.000026  -0.000451   0.000209   0.000271
    10  H    0.005010  -0.015364  -0.000908  -0.000803
    11  H    0.006057  -0.002324   0.000631   0.000126
    12  H    0.000769  -0.000974   0.000160  -0.000185
    13  H    0.598886  -0.086747  -0.005029   0.008640
    14  H   -0.086747   0.748292  -0.006707  -0.004076
    15  H   -0.005029  -0.006707   0.495290  -0.058192
    16  H    0.008640  -0.004076  -0.058192   0.500619
 Mulliken charges:
               1
     1  C   -0.550465
     2  C    0.381473
     3  C    0.401283
     4  C   -0.055919
     5  C   -0.478859
     6  N   -0.047370
     7  C   -0.680673
     8  N   -0.360474
     9  H    0.153770
    10  H    0.182293
    11  H    0.162396
    12  H    0.160364
    13  H    0.174865
    14  H    0.117924
    15  H    0.230874
    16  H    0.208519
 Sum of Mulliken charges =   0.00000
 Mulliken charges with hydrogens summed into heavy atoms:
               1
     1  C   -0.396695
     2  C    0.563766
     3  C    0.401283
     4  C    0.106477
     5  C   -0.318496
     6  N   -0.047370
     7  C   -0.387884
     8  N    0.078919
 Electronic spatial extent (au):  <R**2>=            949.2636
 Charge=              0.0000 electrons
 Dipole moment (field-independent basis, Debye):
    X=              2.6389    Y=             -0.5928    Z=              1.3556  Tot=              3.0254
 Quadrupole moment (field-independent basis, Debye-Ang):
   XX=            -50.2984   YY=            -42.4269   ZZ=            -51.9460
   XY=             -3.2565   XZ=              2.4852   YZ=              1.1782
 Traceless Quadrupole moment (field-independent basis, Debye-Ang):
   XX=             -2.0747   YY=              5.7969   ZZ=             -3.7222
   XY=             -3.2565   XZ=              2.4852   YZ=              1.1782
 Octapole moment (field-independent basis, Debye-Ang**2):
  XXX=             47.2166  YYY=             -1.2093  ZZZ=              1.5442  XYY=             -0.8928
  XXY=             -3.2795  XXZ=              7.7044  XZZ=             -2.0912  YZZ=             -2.3430
  YYZ=             -1.0705  XYZ=              5.2071
 Hexadecapole moment (field-independent basis, Debye-Ang**3):
 XXXX=           -875.4567 YYYY=           -274.2130 ZZZZ=           -112.3055 XXXY=            -29.8586
 XXXZ=              2.6161 YYYX=             -0.9341 YYYZ=              1.1103 ZZZX=              5.9929
 ZZZY=              3.7665 XXYY=           -180.0506 XXZZ=           -183.2312 YYZZ=            -70.0916
 XXYZ=              8.6528 YYXZ=              0.7357 ZZXY=             -6.3120
 N-N= 3.531315018245D+02 E-N=-1.504153791394D+03  KE= 3.423616296955D+02

 **********************************************************************

            Electrostatic Properties Using The SCF Density

 **********************************************************************

       Atomic Center    1 is at  -1.494208 -1.157209  0.012527
       Atomic Center    2 is at  -0.174161 -1.067803  0.240583
       Atomic Center    3 is at   0.402763  0.146003  0.257897
       Atomic Center    4 is at  -0.401265  1.200831  0.040642
       Atomic Center    5 is at  -1.708968  0.986893 -0.176629
       Atomic Center    6 is at  -2.245812 -0.159308 -0.190940
       Atomic Center    7 is at   1.881579  0.302852  0.508489
       Atomic Center    8 is at   2.620586 -0.144460 -0.680132
       Atomic Center    9 is at  -1.983464 -2.146001 -0.005186
       Atomic Center   10 is at   0.424469 -1.977331  0.409981
       Atomic Center   11 is at   0.000050  2.226848  0.037892
       Atomic Center   12 is at  -2.383348  1.841308 -0.357358
       Atomic Center   13 is at   2.156491  1.356298  0.742796
       Atomic Center   14 is at   2.182379 -0.321128  1.381447
       Atomic Center   15 is at   3.630499 -0.225182 -0.471243
       Atomic Center   16 is at   2.315073 -1.097848 -0.941873
 -----------------------------------------------------------------

              Electrostatic Properties (Atomic Units)

 -----------------------------------------------------------------
    Center     Electric         -------- Electric Field --------
               Potential          X             Y             Z
 -----------------------------------------------------------------
    1 Atom    -14.755002      0.001329     -0.021158      0.001485
    2 Atom    -14.777429      0.006057     -0.010095      0.002088
    3 Atom    -14.762045      0.011942      0.002614      0.002506
    4 Atom    -14.779920      0.004490      0.011950     -0.000213
    5 Atom    -14.756360     -0.002858      0.020934     -0.002120
    6 Atom    -18.422427     -0.054871     -0.006170     -0.009236
    7 Atom    -14.729160     -0.000435      0.001010      0.004924
    8 Atom    -18.403850     -0.004528      0.022254     -0.028064
    9 Atom     -1.114933     -0.003139     -0.010519      0.000363
   10 Atom     -1.090727      0.003264     -0.007603      0.002318
   11 Atom     -1.096640      0.002673      0.007147     -0.000190
   12 Atom     -1.116300     -0.005055      0.009538     -0.001541
   13 Atom     -1.106698     -0.000624      0.004503     -0.001155
   14 Atom     -1.114836     -0.002209     -0.001490      0.011934
   15 Atom     -1.053968      0.005328      0.001629      0.000489
   16 Atom     -1.053290     -0.001701     -0.003634     -0.002709
 -----------------------------------------------------------------
 -----------------------------------------------------
    Center         ---- Electric Field Gradient ----
                     XX            YY            ZZ
 -----------------------------------------------------
    1 Atom     -500.921068   -500.981366   -501.448997
    2 Atom     -500.885763   -500.949582   -501.330251
    3 Atom     -501.029989   -500.856901   -501.525259
    4 Atom     -500.878586   -500.996888   -501.377305
    5 Atom     -500.922166   -500.997944   -501.464323
    6 Atom     -813.027898   -814.329225   -814.850929
    7 Atom     -500.331721   -500.205631   -500.414618
    8 Atom     -813.590323   -812.986059   -812.755831
    9 Atom       -1.782073     -2.039780     -1.685746
   10 Atom       -1.799794     -1.961070     -1.663154
   11 Atom       -1.726655     -2.034328     -1.649793
   12 Atom       -1.854033     -1.955894     -1.696400
   13 Atom       -1.713268     -2.039049     -1.699081
   14 Atom       -1.733882     -1.825893     -1.946126
   15 Atom       -2.115659     -1.609225     -1.624903
   16 Atom       -1.676280     -2.043228     -1.621990
 -----------------------------------------------------
 -----------------------------------------------------
    Center         ---- Electric Field Gradient ----
                     XY            XZ            YZ
 -----------------------------------------------------
    1 Atom        0.024141      0.092544     -0.030499
    2 Atom        0.082204      0.084078     -0.012104
    3 Atom       -0.016647      0.077986     -0.053262
    4 Atom       -0.037818      0.094089     -0.031565
    5 Atom        0.005066      0.097849     -0.033794
    6 Atom        0.162403      0.315863     -0.012148
    7 Atom        0.031745      0.105337     -0.077579
    8 Atom       -0.104919      0.252490     -0.820652
    9 Atom       -0.161740     -0.005864     -0.003793
   10 Atom        0.187615     -0.037739      0.055256
   11 Atom       -0.141969     -0.004693      0.002096
   12 Atom        0.194238     -0.043904      0.053672
   13 Atom       -0.089672     -0.016557     -0.080220
   14 Atom        0.059897     -0.080962      0.173252
   15 Atom        0.037187     -0.103433     -0.022782
   16 Atom       -0.145923     -0.021850     -0.140594
 -----------------------------------------------------
 -----------------------------------------------------
    Center         ---- Electric Field Gradient ----
                   ----       Eigenvalues       ----
 -----------------------------------------------------
    1 Atom     -501.467149   -500.983416   -500.900866
    2 Atom     -501.347475   -500.996599   -500.821523
    3 Atom     -501.540927   -501.021554   -500.849669
    4 Atom     -501.395954   -501.007909   -500.848915
    5 Atom     -501.483844   -500.995550   -500.905039
    6 Atom     -814.906791   -814.344766   -812.956495
    7 Atom     -500.508643   -500.263428   -500.179899
    8 Atom     -813.757914   -813.574458   -811.999841
    9 Atom       -2.117801     -1.704824     -1.684974
   10 Atom       -2.095008     -1.676274     -1.652736
   11 Atom       -2.089826     -1.672327     -1.648624
   12 Atom       -2.117186     -1.704354     -1.684787
   13 Atom       -2.079689     -1.691670     -1.680038
   14 Atom       -2.097296     -1.706765     -1.701841
   15 Atom       -2.138501     -1.635334     -1.575953
   16 Atom       -2.132629     -1.636805     -1.572064
 -----------------------------------------------------
 -----------------------------------------------------
    Center         ---- Electric Field Gradient ----
                       ( tensor representation )
                   3XX-RR        3YY-RR        3ZZ-RR
 -----------------------------------------------------
    1 Atom        0.196076      0.135778     -0.331853
    2 Atom        0.169435      0.105617     -0.275052
    3 Atom        0.107394      0.280482     -0.387876
    4 Atom        0.205674      0.087372     -0.293046
    5 Atom        0.205979      0.130200     -0.336179
    6 Atom        1.041453     -0.259875     -0.781578
    7 Atom       -0.014398      0.111692     -0.097295
    8 Atom       -0.479585      0.124679      0.354907
    9 Atom        0.053793     -0.203914      0.150120
   10 Atom        0.008212     -0.153064      0.144852
   11 Atom        0.076937     -0.230736      0.153799
   12 Atom       -0.018591     -0.120452      0.139043
   13 Atom        0.103864     -0.221916      0.118052
   14 Atom        0.101418      0.009407     -0.110826
   15 Atom       -0.332397      0.174037      0.158359
   16 Atom        0.104219     -0.262728      0.158509
 -----------------------------------------------------
 -----------------------------------------------------
    Center         ---- Electric Field Gradient ----
                       ( tensor representation )
                   ----       Eigenvalues       ----
 -----------------------------------------------------
    1 Atom       -0.350005      0.133728      0.216277
    2 Atom       -0.292276      0.058600      0.233676
    3 Atom       -0.403543      0.115829      0.287714
    4 Atom       -0.311695      0.076350      0.235344
    5 Atom       -0.355700      0.132594      0.223106
    6 Atom       -0.837440     -0.275415      1.112855
    7 Atom       -0.191320      0.053895      0.137424
    8 Atom       -0.647176     -0.463720      1.110897
    9 Atom       -0.281935      0.131042      0.150893
   10 Atom       -0.287002      0.131732      0.155270
   11 Atom       -0.286234      0.131265      0.154969
   12 Atom       -0.281744      0.131088      0.150656
   13 Atom       -0.262557      0.125462      0.137095
   14 Atom       -0.261995      0.128536      0.133459
   15 Atom       -0.355238      0.147929      0.207310
   16 Atom       -0.352129      0.143694      0.208435
 -----------------------------------------------------
 Calling FoFJK, ICntrl=      2127 FMM=F ISym2X=0 I1Cent= 0 IOpClX= 0 NMat=1 NMatS=1 NMatT=0.
 ***** Axes restored to original set *****
 -------------------------------------------------------------------
 Center     Atomic                   Forces (Hartrees/Bohr)
 Number     Number              X              Y              Z
 -------------------------------------------------------------------
      1        6           0.060356295    0.051442422    0.040660065
      2        6           0.048142175   -0.005592359    0.044923887
      3        6           0.008536269   -0.052952797    0.015533835
      4        6          -0.037992337   -0.051412356   -0.019075257
      5        6          -0.067387503   -0.014521690   -0.055310265
      6        7          -0.014118495    0.074080301   -0.033704717
      7        6           0.011848700   -0.010668436    0.004118548
      8        7           0.004317778   -0.002607449    0.019262964
      9        1          -0.002454646   -0.007068286   -0.000459263
     10        1          -0.006032878    0.001746480   -0.007333287
     11        1           0.005930796    0.007942281    0.003094537
     12        1           0.004637844   -0.003365149    0.004964115
     13        1           0.003708504    0.011288254    0.006236079
     14        1          -0.007070426    0.002169333   -0.007708451
     15        1          -0.005677999    0.010744748   -0.007909661
     16        1          -0.006744078   -0.011225297   -0.007293128
 -------------------------------------------------------------------
 Cartesian Forces:  Max     0.074080301 RMS     0.027471255

 GradGradGradGradGradGradGradGradGradGradGradGradGradGradGradGradGradGrad
 Berny optimization.
 FormGI is forming the generalized inverse of G from B-inverse, IUseBI=4.
 Internal  Forces:  Max     0.088458025 RMS     0.020498744
 Search for a local minimum.
 Step number   1 out of a maximum of   83
 All quantities printed in internal units (Hartrees-Bohrs-Radians)
 Mixed Optimization -- RFO/linear search
 Second derivative matrix not updated -- first step.
 ITU=  0
     Eigenvalues ---    0.00659   0.00774   0.01923   0.02832   0.02838
     Eigenvalues ---    0.02839   0.02918   0.03019   0.03069   0.03319
     Eigenvalues ---    0.04360   0.05337   0.06591   0.09478   0.12957
     Eigenvalues ---    0.16000   0.16000   0.16000   0.16000   0.16000
     Eigenvalues ---    0.16000   0.21924   0.22000   0.22837   0.23878
     Eigenvalues ---    0.25000   0.31545   0.32139   0.32216   0.33310
     Eigenvalues ---    0.33314   0.33467   0.33493   0.35816   0.42059
     Eigenvalues ---    0.42111   0.50169   0.53131   0.56378   0.56608
     Eigenvalues ---    0.73868   0.76125
 RFO step:  Lambda=-4.60171244D-02 EMin= 6.59104116D-03
 Linear search not attempted -- first point.
 Iteration  1 RMS(Cart)=  0.05282757 RMS(Int)=  0.00060245
 Iteration  2 RMS(Cart)=  0.00071484 RMS(Int)=  0.00024148
 Iteration  3 RMS(Cart)=  0.00000031 RMS(Int)=  0.00024148
 Variable       Old X    -DE/DX   Delta X   Delta X   Delta X     New X
                                 (Linear)    (Quad)   (Total)
    R1        2.53711   0.05499   0.00000   0.09005   0.09006   2.62717
    R2        2.39191   0.08846   0.00000   0.11058   0.11064   2.50255
    R3        2.08504  -0.00714   0.00000  -0.01884  -0.01884   2.06620
    R4        2.53988   0.06152   0.00000   0.09689   0.09684   2.63672
    R5        2.08238  -0.00951   0.00000  -0.02498  -0.02498   2.05741
    R6        2.53978   0.05976   0.00000   0.09395   0.09390   2.63368
    R7        2.84985   0.00306   0.00000   0.00847   0.00847   2.85832
    R8        2.53749   0.05590   0.00000   0.09156   0.09156   2.62905
    R9        2.08194  -0.01038   0.00000  -0.02725  -0.02725   2.05468
   R10        2.39197   0.08808   0.00000   0.11012   0.11017   2.50214
   R11        2.08511  -0.00723   0.00000  -0.01907  -0.01907   2.06604
   R12        2.77670   0.00647   0.00000   0.01602   0.01602   2.79272
   R13        2.10450  -0.01314   0.00000  -0.03568  -0.03568   2.06882
   R14        2.10591  -0.00728   0.00000  -0.01981  -0.01981   2.08610
   R15        1.95482  -0.01440   0.00000  -0.03084  -0.03084   1.92398
   R16        1.95547  -0.01495   0.00000  -0.03205  -0.03205   1.92343
    A1        2.16354  -0.00760   0.00000  -0.01989  -0.01984   2.14370
    A2        2.09253   0.00144   0.00000  -0.00151  -0.00154   2.09099
    A3        2.02711   0.00616   0.00000   0.02141   0.02138   2.04849
    A4        2.07643   0.00376   0.00000   0.00403   0.00397   2.08040
    A5        2.10050  -0.00321   0.00000  -0.00848  -0.00846   2.09204
    A6        2.10625  -0.00055   0.00000   0.00445   0.00448   2.11073
    A7        2.03747   0.00847   0.00000   0.01061   0.01049   2.04796
    A8        2.11412  -0.00421   0.00000  -0.00522  -0.00517   2.10895
    A9        2.13159  -0.00426   0.00000  -0.00539  -0.00533   2.12626
   A10        2.07570   0.00371   0.00000   0.00371   0.00365   2.07934
   A11        2.10995  -0.00174   0.00000  -0.00132  -0.00129   2.10866
   A12        2.09754  -0.00196   0.00000  -0.00240  -0.00236   2.09518
   A13        2.16415  -0.00744   0.00000  -0.01943  -0.01938   2.14477
   A14        2.09249   0.00134   0.00000  -0.00184  -0.00186   2.09063
   A15        2.02654   0.00610   0.00000   0.02127   0.02124   2.04778
   A16        2.04907  -0.00090   0.00000   0.02097   0.02112   2.07019
   A17        1.90403   0.00587   0.00000   0.02387   0.02342   1.92745
   A18        1.95564  -0.00369   0.00000  -0.03112  -0.03129   1.92434
   A19        1.91411  -0.00477   0.00000  -0.01704  -0.01841   1.89571
   A20        1.91135  -0.00425   0.00000  -0.02622  -0.02593   1.88541
   A21        1.90441   0.00665   0.00000   0.05669   0.05656   1.96098
   A22        1.87361   0.00034   0.00000  -0.00425  -0.00444   1.86917
   A23        1.92988  -0.00080   0.00000  -0.00207  -0.00208   1.92780
   A24        1.91410   0.00100   0.00000   0.00669   0.00669   1.92079
   A25        1.84151   0.00078   0.00000   0.00756   0.00754   1.84905
    D1        0.00008  -0.00020   0.00000  -0.00255  -0.00253  -0.00245
    D2       -3.14086  -0.00053   0.00000  -0.00699  -0.00695   3.13538
    D3        3.14140   0.00020   0.00000   0.00269   0.00268  -3.13911
    D4        0.00046  -0.00013   0.00000  -0.00174  -0.00174  -0.00128
    D5        0.00047   0.00011   0.00000   0.00148   0.00150   0.00196
    D6       -3.14086  -0.00028   0.00000  -0.00358  -0.00359   3.13873
    D7       -0.00047   0.00020   0.00000   0.00245   0.00245   0.00198
    D8       -3.14089   0.00044   0.00000   0.00616   0.00618  -3.13472
    D9        3.14046   0.00053   0.00000   0.00690   0.00691  -3.13581
   D10        0.00005   0.00077   0.00000   0.01061   0.01064   0.01069
   D11        0.00033  -0.00013   0.00000  -0.00154  -0.00152  -0.00119
   D12       -3.13950   0.00004   0.00000   0.00071   0.00072  -3.13878
   D13        3.14074  -0.00038   0.00000  -0.00530  -0.00529   3.13545
   D14        0.00091  -0.00021   0.00000  -0.00305  -0.00305  -0.00214
   D15        1.27142   0.00456   0.00000   0.04443   0.04430   1.31572
   D16       -2.89231   0.00082   0.00000   0.00742   0.00717  -2.88514
   D17       -0.81347  -0.00425   0.00000  -0.02895  -0.02854  -0.84201
   D18       -1.86894   0.00481   0.00000   0.04834   0.04819  -1.82075
   D19        0.25052   0.00107   0.00000   0.01133   0.01106   0.26158
   D20        2.32936  -0.00400   0.00000  -0.02504  -0.02466   2.30471
   D21        0.00023   0.00005   0.00000   0.00055   0.00054   0.00077
   D22       -3.14093   0.00002   0.00000   0.00024   0.00023  -3.14070
   D23        3.14007  -0.00012   0.00000  -0.00168  -0.00168   3.13839
   D24       -0.00109  -0.00014   0.00000  -0.00199  -0.00199  -0.00308
   D25       -0.00062  -0.00003   0.00000  -0.00047  -0.00048  -0.00111
   D26        3.14055  -0.00001   0.00000  -0.00018  -0.00019   3.14036
   D27       -2.94591  -0.00247   0.00000  -0.03232  -0.03286  -2.97877
   D28       -0.92228  -0.00140   0.00000  -0.02038  -0.02090  -0.94319
   D29        1.19113   0.00103   0.00000   0.00767   0.00754   1.19867
   D30       -3.06843   0.00210   0.00000   0.01962   0.01949  -3.04894
   D31       -0.85502  -0.00079   0.00000  -0.00491  -0.00425  -0.85927
   D32        1.16861   0.00028   0.00000   0.00704   0.00770   1.17631
         Item               Value     Threshold  Converged?
 Maximum Force            0.088458     0.000450     NO 
 RMS     Force            0.020499     0.000300     NO 
 Maximum Displacement     0.141672     0.001800     NO 
 RMS     Displacement     0.052612     0.001200     NO 
 Predicted change in Energy=-2.488316D-02
 GradGradGradGradGradGradGradGradGradGradGradGradGradGradGradGradGradGrad

                          Input orientation:                          
 ---------------------------------------------------------------------
 Center     Atomic      Atomic             Coordinates (Angstroms)
 Number     Number       Type             X           Y           Z
 ---------------------------------------------------------------------
      1          6           0        0.695311    1.846021   -0.405798
      2          6           0        0.979684    0.621612    0.188104
      3          6           0        0.219612   -0.495945   -0.158593
      4          6           0       -0.794462   -0.314209   -1.097198
      5          6           0       -1.000229    0.952032   -1.635553
      6          7           0       -0.271436    2.004342   -1.296913
      7          6           0        0.491246   -1.844027    0.471271
      8          7           0       -0.023084   -1.879476    1.856271
      9          1           0        1.286166    2.727721   -0.143146
     10          1           0        1.789967    0.544983    0.911227
     11          1           0       -1.422802   -1.145922   -1.406464
     12          1           0       -1.793318    1.106729   -2.372024
     13          1           0       -0.009068   -2.635296   -0.096268
     14          1           0        1.575635   -2.044495    0.420809
     15          1           0        0.291734   -2.723201    2.331244
     16          1           0        0.356644   -1.100169    2.389631
 ---------------------------------------------------------------------
                    Distance matrix (angstroms):
                    1          2          3          4          5
     1  C    0.000000
     2  C    1.390239   0.000000
     3  C    2.402542   1.395293   0.000000
     4  C    2.713679   2.382301   1.393684   0.000000
     5  C    2.277360   2.712003   2.401263   1.391235   0.000000
     6  N    1.324292   2.383803   2.790759   2.385188   1.324074
     7  C    3.798335   2.529453   1.512560   2.540371   3.805411
     8  N    4.417282   3.169191   2.456163   3.430462   4.600554
     9  H    1.093385   2.153915   3.395555   3.806911   3.256985
    10  H    2.150704   1.088732   2.166578   3.383971   3.799602
    11  H    3.799929   3.382124   2.162678   1.087291   2.152316
    12  H    3.256665   3.805145   3.394072   2.154521   1.093302
    13  H    4.546885   3.415545   2.152441   2.646913   4.027496
    14  H    4.073618   2.741794   2.138343   3.303876   4.454535
    15  H    5.341542   4.031638   3.341431   4.328658   5.559855
    16  H    4.075434   2.863465   2.622462   3.755097   4.717494
                    6          7          8          9         10
     6  N    0.000000
     7  C    4.303266   0.000000
     8  N    5.008822   1.477843   0.000000
     9  H    2.068956   4.680842   5.190190   0.000000
    10  H    3.354846   2.754561   3.171477   2.475856   0.000000
    11  H    3.355862   2.770707   3.625293   4.892810   4.307288
    12  H    2.068259   4.691537   5.470798   4.132642   4.892364
    13  H    4.799649   1.094770   2.093769   5.517407   3.790218
    14  H    4.770254   1.103917   2.154922   4.814133   2.644209
    15  H    5.985846   2.066943   1.018126   6.068282   3.865511
    16  H    4.860358   2.061928   1.017833   4.683131   2.635644
                   11         12         13         14         15
    11  H    0.000000
    12  H    2.478715   0.000000
    13  H    2.435876   4.729203   0.000000
    14  H    3.624497   5.392585   1.768530   0.000000
    15  H    4.404304   6.413777   2.447656   2.399752   0.000000
    16  H    4.192714   5.671516   2.944495   2.500790   1.625378
                   16
    16  H    0.000000
 Stoichiometry    C6H8N2
 Framework group  C1[X(C6H8N2)]
 Deg. of freedom    42
 Full point group                 C1      NOp   1
 Largest Abelian subgroup         C1      NOp   1
 Largest concise Abelian subgroup C1      NOp   1
                         Standard orientation:                         
 ---------------------------------------------------------------------
 Center     Atomic      Atomic             Coordinates (Angstroms)
 Number     Number       Type             X           Y           Z
 ---------------------------------------------------------------------
      1          6           0       -1.547469   -1.207434   -0.004570
      2          6           0       -0.180576   -1.125109    0.235411
      3          6           0        0.430127    0.128961    0.269963
      4          6           0       -0.381734    1.242235    0.060539
      5          6           0       -1.740819    1.055595   -0.170954
      6          7           0       -2.307243   -0.140816   -0.201592
      7          6           0        1.916151    0.261006    0.519230
      8          7           0        2.677662   -0.116094   -0.689867
      9          1           0       -2.036624   -2.184929   -0.031455
     10          1           0        0.397218   -2.033651    0.396786
     11          1           0        0.035562    2.246184    0.072830
     12          1           0       -2.387305    1.921428   -0.337381
     13          1           0        2.168043    1.296730    0.768929
     14          1           0        2.183156   -0.357743    1.393581
     15          1           0        3.672033   -0.176355   -0.479692
     16          1           0        2.400905   -1.044819   -1.001093
 ---------------------------------------------------------------------
 Rotational constants (GHZ):      4.8949842      1.4708417      1.2209603
 Standard basis: 6-311++G(d,p) (5D, 7F)
 There are   240 symmetry adapted cartesian basis functions of A   symmetry.
 There are   232 symmetry adapted basis functions of A   symmetry.
   232 basis functions,   360 primitive gaussians,   240 cartesian basis functions
    29 alpha electrons       29 beta electrons
       nuclear repulsion energy       344.5446461995 Hartrees.
 NAtoms=   16 NActive=   16 NUniq=   16 SFac= 1.00D+00 NAtFMM=   60 NAOKFM=F Big=F
 Integral buffers will be    131072 words long.
 Raffenetti 2 integral format.
 Two-electron integral symmetry is turned on.
 One-electron integrals computed using PRISM.
 NBasis=   232 RedAO= T EigKep=  4.47D-06  NBF=   232
 NBsUse=   232 1.00D-06 EigRej= -1.00D+00 NBFU=   232
 Initial guess from the checkpoint file:  "22_4_aminomethylpyridine.chk"
 B after Tr=     0.000000    0.000000    0.000000
         Rot=    0.999936   -0.010946    0.000585    0.002675 Ang=  -1.29 deg.
 ExpMin= 3.60D-02 ExpMax= 6.29D+03 ExpMxC= 9.49D+02 IAcc=3 IRadAn=         5 AccDes= 0.00D+00
 Harris functional with IExCor=  402 and IRadAn=       5 diagonalized for initial guess.
 HarFok:  IExCor=  402 AccDes= 0.00D+00 IRadAn=         5 IDoV= 1 UseB2=F ITyADJ=14
 ICtDFT=  3500011 ScaDFX=  1.000000  1.000000  1.000000  1.000000
 FoFCou: FMM=F IPFlag=           0 FMFlag=      100000 FMFlg1=           0
         NFxFlg=           0 DoJE=T BraDBF=F KetDBF=T FulRan=T
         wScrn=  0.000000 ICntrl=     500 IOpCl=  0 I1Cent=   200000004 NGrid=           0
         NMat0=    1 NMatS0=      1 NMatT0=    0 NMatD0=    1 NMtDS0=    0 NMtDT0=    0
 Petite list used in FoFCou.
 Keep R1 ints in memory in canonical form, NReq=372466488.
 Requested convergence on RMS density matrix=1.00D-08 within 128 cycles.
 Requested convergence on MAX density matrix=1.00D-06.
 Requested convergence on             energy=1.00D-06.
 No special actions if energy rises.
 SCF Done:  E(RB3LYP) =  -343.040832112     A.U. after   13 cycles
            NFock= 13  Conv=0.23D-08     -V/T= 2.0043
 Calling FoFJK, ICntrl=      2127 FMM=F ISym2X=0 I1Cent= 0 IOpClX= 0 NMat=1 NMatS=1 NMatT=0.
 ***** Axes restored to original set *****
 -------------------------------------------------------------------
 Center     Atomic                   Forces (Hartrees/Bohr)
 Number     Number              X              Y              Z
 -------------------------------------------------------------------
      1        6           0.007795855   -0.000579711    0.007368212
      2        6           0.003141161   -0.001180392    0.003296027
      3        6          -0.000148135   -0.004553280   -0.000381790
      4        6          -0.002157812   -0.003823791   -0.000128825
      5        6          -0.005964842   -0.007661020   -0.003036129
      6        7          -0.003508823    0.016710550   -0.007847953
      7        6           0.002955716   -0.000803884    0.003607818
      8        7           0.001959470    0.000076728    0.001493302
      9        1          -0.003221175   -0.002490313   -0.002105089
     10        1          -0.001096525   -0.000155553   -0.001767843
     11        1           0.001301535    0.001134205    0.000905260
     12        1           0.003527764    0.000998085    0.002694385
     13        1           0.000060427    0.001785348    0.000237358
     14        1          -0.001582385    0.000695535   -0.001103502
     15        1          -0.001570050    0.000309219   -0.002078889
     16        1          -0.001492181   -0.000461727   -0.001152341
 -------------------------------------------------------------------
 Cartesian Forces:  Max     0.016710550 RMS     0.003901903

 GradGradGradGradGradGradGradGradGradGradGradGradGradGradGradGradGradGrad
 Berny optimization.
 Using GEDIIS/GDIIS optimizer.
 FormGI is forming the generalized inverse of G from B-inverse, IUseBI=4.
 Internal  Forces:  Max     0.009654439 RMS     0.002287267
 Search for a local minimum.
 Step number   2 out of a maximum of   83
 All quantities printed in internal units (Hartrees-Bohrs-Radians)
 Mixed Optimization -- RFO/linear search
 Update second derivatives using D2CorX and points    1    2
 DE= -2.38D-02 DEPred=-2.49D-02 R= 9.58D-01
 TightC=F SS=  1.41D+00  RLast= 2.86D-01 DXNew= 5.0454D-01 8.5726D-01
 Trust test= 9.58D-01 RLast= 2.86D-01 DXMaxT set to 5.05D-01
 ITU=  1  0
 Use linear search instead of GDIIS.
     Eigenvalues ---    0.00659   0.00774   0.01932   0.02833   0.02838
     Eigenvalues ---    0.02839   0.02917   0.03022   0.03073   0.03323
     Eigenvalues ---    0.04302   0.05214   0.06559   0.09684   0.13107
     Eigenvalues ---    0.15991   0.16000   0.16000   0.16000   0.16000
     Eigenvalues ---    0.16069   0.21932   0.22000   0.22986   0.24067
     Eigenvalues ---    0.25000   0.31554   0.32102   0.32223   0.33019
     Eigenvalues ---    0.33312   0.33469   0.33502   0.35862   0.42060
     Eigenvalues ---    0.42098   0.50664   0.54275   0.56368   0.57470
     Eigenvalues ---    0.70629   0.76256
 RFO step:  Lambda=-1.23546847D-03 EMin= 6.59066446D-03
 Quartic linear search produced a step of  0.09812.
 Iteration  1 RMS(Cart)=  0.04925772 RMS(Int)=  0.00096833
 Iteration  2 RMS(Cart)=  0.00144513 RMS(Int)=  0.00007629
 Iteration  3 RMS(Cart)=  0.00000116 RMS(Int)=  0.00007628
 Iteration  4 RMS(Cart)=  0.00000000 RMS(Int)=  0.00007628
 Variable       Old X    -DE/DX   Delta X   Delta X   Delta X     New X
                                 (Linear)    (Quad)   (Total)
    R1        2.62717   0.00378   0.00884   0.00049   0.00933   2.63651
    R2        2.50255   0.00965   0.01086   0.00567   0.01655   2.51910
    R3        2.06620  -0.00425  -0.00185  -0.01259  -0.01444   2.05176
    R4        2.63672   0.00190   0.00950  -0.00460   0.00487   2.64160
    R5        2.05741  -0.00198  -0.00245  -0.00464  -0.00709   2.05031
    R6        2.63368   0.00119   0.00921  -0.00579   0.00340   2.63708
    R7        2.85832  -0.00095   0.00083  -0.00391  -0.00308   2.85524
    R8        2.62905   0.00395   0.00898   0.00064   0.00963   2.63868
    R9        2.05468  -0.00188  -0.00267  -0.00414  -0.00681   2.04787
   R10        2.50214   0.00933   0.01081   0.00523   0.01606   2.51820
   R11        2.06604  -0.00423  -0.00187  -0.01251  -0.01438   2.05166
   R12        2.79272  -0.00124   0.00157  -0.00496  -0.00339   2.78933
   R13        2.06882  -0.00144  -0.00350  -0.00230  -0.00580   2.06302
   R14        2.08610  -0.00163  -0.00194  -0.00411  -0.00606   2.08004
   R15        1.92398  -0.00171  -0.00303  -0.00215  -0.00517   1.91881
   R16        1.92343  -0.00151  -0.00314  -0.00154  -0.00468   1.91874
    A1        2.14370   0.00273  -0.00195   0.01633   0.01441   2.15811
    A2        2.09099   0.00039  -0.00015   0.00455   0.00438   2.09537
    A3        2.04849  -0.00313   0.00210  -0.02090  -0.01882   2.02967
    A4        2.08040   0.00093   0.00039   0.00117   0.00152   2.08193
    A5        2.09204  -0.00029  -0.00083   0.00099   0.00016   2.09220
    A6        2.11073  -0.00064   0.00044  -0.00218  -0.00174   2.10899
    A7        2.04796  -0.00014   0.00103  -0.00640  -0.00544   2.04252
    A8        2.10895   0.00013  -0.00051   0.00343   0.00294   2.11190
    A9        2.12626   0.00001  -0.00052   0.00294   0.00243   2.12870
   A10        2.07934   0.00103   0.00036   0.00145   0.00177   2.08112
   A11        2.10866  -0.00105  -0.00013  -0.00440  -0.00451   2.10415
   A12        2.09518   0.00002  -0.00023   0.00294   0.00273   2.09790
   A13        2.14477   0.00279  -0.00190   0.01637   0.01450   2.15927
   A14        2.09063   0.00032  -0.00018   0.00428   0.00408   2.09471
   A15        2.04778  -0.00312   0.00208  -0.02065  -0.01858   2.02921
   A16        2.07019  -0.00735   0.00207  -0.02893  -0.02677   2.04342
   A17        1.92745   0.00078   0.00230   0.00237   0.00442   1.93187
   A18        1.92434  -0.00131  -0.00307  -0.01954  -0.02273   1.90162
   A19        1.89571  -0.00063  -0.00181   0.00381   0.00160   1.89731
   A20        1.88541  -0.00061  -0.00254  -0.00986  -0.01245   1.87297
   A21        1.96098   0.00148   0.00555   0.02103   0.02646   1.98744
   A22        1.86917   0.00023  -0.00044   0.00129   0.00087   1.87004
   A23        1.92780  -0.00107  -0.00020  -0.00145  -0.00170   1.92610
   A24        1.92079   0.00053   0.00066   0.00894   0.00955   1.93033
   A25        1.84905   0.00120   0.00074   0.01947   0.02011   1.86916
    D1       -0.00245  -0.00009  -0.00025  -0.00272  -0.00297  -0.00542
    D2        3.13538  -0.00029  -0.00068  -0.01056  -0.01126   3.12411
    D3       -3.13911   0.00006   0.00026   0.00220   0.00248  -3.13662
    D4       -0.00128  -0.00015  -0.00017  -0.00565  -0.00581  -0.00709
    D5        0.00196   0.00002   0.00015   0.00116   0.00130   0.00327
    D6        3.13873  -0.00011  -0.00035  -0.00358  -0.00390   3.13483
    D7        0.00198   0.00007   0.00024   0.00171   0.00195   0.00393
    D8       -3.13472   0.00020   0.00061   0.00869   0.00928  -3.12544
    D9       -3.13581   0.00028   0.00068   0.00964   0.01032  -3.12549
   D10        0.01069   0.00041   0.00104   0.01662   0.01765   0.02833
   D11       -0.00119  -0.00001  -0.00015   0.00053   0.00036  -0.00082
   D12       -3.13878   0.00004   0.00007   0.00238   0.00243  -3.13635
   D13        3.13545  -0.00014  -0.00052  -0.00651  -0.00703   3.12842
   D14       -0.00214  -0.00009  -0.00030  -0.00467  -0.00497  -0.00711
   D15        1.31572   0.00141   0.00435   0.08165   0.08594   1.40166
   D16       -2.88514   0.00031   0.00070   0.05852   0.05921  -2.82593
   D17       -0.84201  -0.00053  -0.00280   0.05124   0.04849  -0.79352
   D18       -1.82075   0.00154   0.00473   0.08897   0.09365  -1.72710
   D19        0.26158   0.00044   0.00109   0.06584   0.06693   0.32850
   D20        2.30471  -0.00039  -0.00242   0.05856   0.05621   2.36091
   D21        0.00077  -0.00005   0.00005  -0.00212  -0.00207  -0.00131
   D22       -3.14070  -0.00003   0.00002  -0.00133  -0.00130   3.14119
   D23        3.13839  -0.00010  -0.00016  -0.00397  -0.00415   3.13424
   D24       -0.00308  -0.00008  -0.00019  -0.00318  -0.00338  -0.00645
   D25       -0.00111   0.00005  -0.00005   0.00129   0.00125   0.00014
   D26        3.14036   0.00003  -0.00002   0.00052   0.00051   3.14087
   D27       -2.97877  -0.00151  -0.00322  -0.05266  -0.05604  -3.03481
   D28       -0.94319  -0.00036  -0.00205  -0.02435  -0.02651  -0.96970
   D29        1.19867   0.00001   0.00074  -0.02399  -0.02334   1.17533
   D30       -3.04894   0.00116   0.00191   0.00431   0.00619  -3.04274
   D31       -0.85927  -0.00075  -0.00042  -0.03162  -0.03187  -0.89115
   D32        1.17631   0.00040   0.00076  -0.00332  -0.00234   1.17397
         Item               Value     Threshold  Converged?
 Maximum Force            0.009654     0.000450     NO 
 RMS     Force            0.002287     0.000300     NO 
 Maximum Displacement     0.166616     0.001800     NO 
 RMS     Displacement     0.049166     0.001200     NO 
 Predicted change in Energy=-7.149188D-04
 GradGradGradGradGradGradGradGradGradGradGradGradGradGradGradGradGradGrad

                          Input orientation:                          
 ---------------------------------------------------------------------
 Center     Atomic      Atomic             Coordinates (Angstroms)
 Number     Number       Type             X           Y           Z
 ---------------------------------------------------------------------
      1          6           0        0.704870    1.854343   -0.429639
      2          6           0        1.009100    0.630150    0.166449
      3          6           0        0.243693   -0.495018   -0.153234
      4          6           0       -0.792996   -0.317088   -1.070287
      5          6           0       -1.013123    0.950310   -1.613411
      6          7           0       -0.284786    2.023230   -1.306615
      7          6           0        0.525895   -1.835174    0.484927
      8          7           0       -0.064128   -1.903877    1.836175
      9          1           0        1.294092    2.735297   -0.193900
     10          1           0        1.839658    0.558788    0.860895
     11          1           0       -1.425322   -1.149694   -1.355428
     12          1           0       -1.815887    1.102947   -2.328255
     13          1           0        0.057973   -2.618757   -0.114123
     14          1           0        1.611622   -2.014888    0.463283
     15          1           0        0.212464   -2.764258    2.299056
     16          1           0        0.268475   -1.135610    2.410708
 ---------------------------------------------------------------------
                    Distance matrix (angstroms):
                    1          2          3          4          5
     1  C    0.000000
     2  C    1.395179   0.000000
     3  C    2.410100   1.397872   0.000000
     4  C    2.714617   2.382084   1.395482   0.000000
     5  C    2.273784   2.712893   2.408460   1.396330   0.000000
     6  N    1.333052   2.405146   2.819778   2.406494   1.332575
     7  C    3.805390   2.532338   1.510928   2.542194   3.811892
     8  N    4.455277   3.218866   2.457109   3.390675   4.576748
     9  H    1.085742   2.154696   3.397047   3.800137   3.244138
    10  H    2.152135   1.084978   2.164733   3.380457   3.796557
    11  H    3.797241   3.377923   2.158583   1.083686   2.155570
    12  H    3.244003   3.798373   3.395008   2.155293   1.085693
    13  H    4.530634   3.396874   2.132202   2.633643   4.016634
    14  H    4.073138   2.728987   2.135726   3.319118   4.471503
    15  H    5.386995   4.087132   3.341280   4.283931   5.532403
    16  H    4.147027   2.950108   2.642872   3.730151   4.710318
                    6          7          8          9         10
     6  N    0.000000
     7  C    4.330601   0.000000
     8  N    5.034679   1.476049   0.000000
     9  H    2.058647   4.684030   5.242891   0.000000
    10  H    3.369860   2.756515   3.261946   2.479401   0.000000
    11  H    3.372040   2.768400   3.550770   4.882368   4.300127
    12  H    2.057897   4.693665   5.426982   4.109989   4.881578
    13  H    4.804951   1.091702   2.080775   5.495475   3.771187
    14  H    4.799509   1.100712   2.169169   4.805931   2.614173
    15  H    6.013997   2.062160   1.015390   6.134318   3.969723
    16  H    4.909466   2.065016   1.015356   4.777007   2.782359
                   11         12         13         14         15
    11  H    0.000000
    12  H    2.484618   0.000000
    13  H    2.428816   4.718560   0.000000
    14  H    3.644076   5.409380   1.764052   0.000000
    15  H    4.317917   6.362507   2.422493   2.426780   0.000000
    16  H    4.129519   5.640344   2.935781   2.523814   1.633431
                   16
    16  H    0.000000
 Stoichiometry    C6H8N2
 Framework group  C1[X(C6H8N2)]
 Deg. of freedom    42
 Full point group                 C1      NOp   1
 Largest Abelian subgroup         C1      NOp   1
 Largest concise Abelian subgroup C1      NOp   1
                         Standard orientation:                         
 ---------------------------------------------------------------------
 Center     Atomic      Atomic             Coordinates (Angstroms)
 Number     Number       Type             X           Y           Z
 ---------------------------------------------------------------------
      1          6           0       -1.577952   -1.186939   -0.027056
      2          6           0       -0.206783   -1.142724    0.226843
      3          6           0        0.438202    0.096074    0.285321
      4          6           0       -0.349112    1.230955    0.086445
      5          6           0       -1.715528    1.078925   -0.157546
      6          7           0       -2.329626   -0.102290   -0.215608
      7          6           0        1.925148    0.188187    0.537139
      8          7           0        2.681164   -0.068577   -0.704325
      9          1           0       -2.092399   -2.142075   -0.070591
     10          1           0        0.343123   -2.064167    0.387224
     11          1           0        0.092849    2.220017    0.114783
     12          1           0       -2.339967    1.953244   -0.313660
     13          1           0        2.167745    1.201976    0.861473
     14          1           0        2.185556   -0.488504    1.365296
     15          1           0        3.677151   -0.105191   -0.510199
     16          1           0        2.421329   -0.966099   -1.101677
 ---------------------------------------------------------------------
 Rotational constants (GHZ):      4.8942233      1.4572200      1.2170865
 Standard basis: 6-311++G(d,p) (5D, 7F)
 There are   240 symmetry adapted cartesian basis functions of A   symmetry.
 There are   232 symmetry adapted basis functions of A   symmetry.
   232 basis functions,   360 primitive gaussians,   240 cartesian basis functions
    29 alpha electrons       29 beta electrons
       nuclear repulsion energy       343.8410033149 Hartrees.
 NAtoms=   16 NActive=   16 NUniq=   16 SFac= 1.00D+00 NAtFMM=   60 NAOKFM=F Big=F
 Integral buffers will be    131072 words long.
 Raffenetti 2 integral format.
 Two-electron integral symmetry is turned on.
 One-electron integrals computed using PRISM.
 NBasis=   232 RedAO= T EigKep=  4.61D-06  NBF=   232
 NBsUse=   232 1.00D-06 EigRej= -1.00D+00 NBFU=   232
 Initial guess from the checkpoint file:  "22_4_aminomethylpyridine.chk"
 B after Tr=     0.000000    0.000000    0.000000
         Rot=    0.999855   -0.016155    0.000184    0.005339 Ang=  -1.95 deg.
 ExpMin= 3.60D-02 ExpMax= 6.29D+03 ExpMxC= 9.49D+02 IAcc=3 IRadAn=         5 AccDes= 0.00D+00
 Harris functional with IExCor=  402 and IRadAn=       5 diagonalized for initial guess.
 HarFok:  IExCor=  402 AccDes= 0.00D+00 IRadAn=         5 IDoV= 1 UseB2=F ITyADJ=14
 ICtDFT=  3500011 ScaDFX=  1.000000  1.000000  1.000000  1.000000
 FoFCou: FMM=F IPFlag=           0 FMFlag=      100000 FMFlg1=           0
         NFxFlg=           0 DoJE=T BraDBF=F KetDBF=T FulRan=T
         wScrn=  0.000000 ICntrl=     500 IOpCl=  0 I1Cent=   200000004 NGrid=           0
         NMat0=    1 NMatS0=      1 NMatT0=    0 NMatD0=    1 NMtDS0=    0 NMtDT0=    0
 Petite list used in FoFCou.
 Keep R1 ints in memory in canonical form, NReq=372466488.
 Requested convergence on RMS density matrix=1.00D-08 within 128 cycles.
 Requested convergence on MAX density matrix=1.00D-06.
 Requested convergence on             energy=1.00D-06.
 No special actions if energy rises.
 SCF Done:  E(RB3LYP) =  -343.041683459     A.U. after   12 cycles
            NFock= 12  Conv=0.24D-08     -V/T= 2.0044
 Calling FoFJK, ICntrl=      2127 FMM=F ISym2X=0 I1Cent= 0 IOpClX= 0 NMat=1 NMatS=1 NMatT=0.
 ***** Axes restored to original set *****
 -------------------------------------------------------------------
 Center     Atomic                   Forces (Hartrees/Bohr)
 Number     Number              X              Y              Z
 -------------------------------------------------------------------
      1        6           0.002991464   -0.002507509    0.002824664
      2        6          -0.001059305    0.000825909   -0.001462959
      3        6           0.000233793    0.001033918   -0.000269930
      4        6           0.000177943    0.002152190    0.000514312
      5        6          -0.001369741   -0.004945009    0.000454777
      6        7          -0.000602179    0.002995550   -0.001219634
      7        6          -0.001687008   -0.000254148    0.000720992
      8        7           0.001566902    0.000685693   -0.001212968
      9        1           0.000164190    0.000664469    0.000135023
     10        1           0.000388586    0.000132722    0.000082759
     11        1          -0.000377157   -0.000201960   -0.000289884
     12        1          -0.000373174    0.000199275   -0.000522976
     13        1           0.000352359   -0.001049766   -0.000760247
     14        1           0.000146610    0.000483787    0.001089855
     15        1          -0.000526957   -0.000298607   -0.000157922
     16        1          -0.000026324    0.000083487    0.000074136
 -------------------------------------------------------------------
 Cartesian Forces:  Max     0.004945009 RMS     0.001318973

 GradGradGradGradGradGradGradGradGradGradGradGradGradGradGradGradGradGrad
 Berny optimization.
 Using GEDIIS/GDIIS optimizer.
 FormGI is forming the generalized inverse of G from B-inverse, IUseBI=4.
 Internal  Forces:  Max     0.003112804 RMS     0.000721283
 Search for a local minimum.
 Step number   3 out of a maximum of   83
 All quantities printed in internal units (Hartrees-Bohrs-Radians)
 Mixed Optimization -- En-DIIS/RFO-DIIS
 Update second derivatives using D2CorX and points    1    2    3
 DE= -8.51D-04 DEPred=-7.15D-04 R= 1.19D+00
 TightC=F SS=  1.41D+00  RLast= 2.03D-01 DXNew= 8.4853D-01 6.0863D-01
 Trust test= 1.19D+00 RLast= 2.03D-01 DXMaxT set to 6.09D-01
 ITU=  1  1  0
 Use linear search instead of GDIIS.
     Eigenvalues ---    0.00516   0.00765   0.01920   0.02820   0.02837
     Eigenvalues ---    0.02839   0.02917   0.03019   0.03072   0.03316
     Eigenvalues ---    0.04095   0.05371   0.06588   0.09804   0.13187
     Eigenvalues ---    0.15910   0.15999   0.16000   0.16000   0.16012
     Eigenvalues ---    0.16204   0.21999   0.22024   0.23188   0.24918
     Eigenvalues ---    0.25212   0.31589   0.32072   0.32367   0.33312
     Eigenvalues ---    0.33467   0.33502   0.34123   0.36216   0.42033
     Eigenvalues ---    0.42087   0.50631   0.54331   0.56378   0.61201
     Eigenvalues ---    0.63167   0.76201
 RFO step:  Lambda=-3.31959348D-04 EMin= 5.16419475D-03
 Quartic linear search produced a step of  0.14300.
 Iteration  1 RMS(Cart)=  0.04740310 RMS(Int)=  0.00095374
 Iteration  2 RMS(Cart)=  0.00129815 RMS(Int)=  0.00001356
 Iteration  3 RMS(Cart)=  0.00000064 RMS(Int)=  0.00001355
 Variable       Old X    -DE/DX   Delta X   Delta X   Delta X     New X
                                 (Linear)    (Quad)   (Total)
    R1        2.63651  -0.00190   0.00133  -0.00247  -0.00113   2.63537
    R2        2.51910   0.00296   0.00237   0.00634   0.00871   2.52781
    R3        2.05176   0.00066  -0.00207   0.00133  -0.00073   2.05102
    R4        2.64160  -0.00030   0.00070   0.00015   0.00084   2.64244
    R5        2.05031   0.00034  -0.00101   0.00056  -0.00046   2.04985
    R6        2.63708  -0.00034   0.00049  -0.00006   0.00042   2.63750
    R7        2.85524   0.00017  -0.00044   0.00056   0.00012   2.85536
    R8        2.63868  -0.00219   0.00138  -0.00306  -0.00169   2.63700
    R9        2.04787   0.00045  -0.00097   0.00091  -0.00007   2.04780
   R10        2.51820   0.00311   0.00230   0.00652   0.00882   2.52702
   R11        2.05166   0.00065  -0.00206   0.00129  -0.00076   2.05090
   R12        2.78933  -0.00161  -0.00048  -0.00508  -0.00556   2.78377
   R13        2.06302   0.00102  -0.00083   0.00292   0.00209   2.06511
   R14        2.08004   0.00004  -0.00087  -0.00034  -0.00121   2.07884
   R15        1.91881   0.00004  -0.00074  -0.00045  -0.00119   1.91762
   R16        1.91874   0.00009  -0.00067  -0.00028  -0.00095   1.91779
    A1        2.15811  -0.00047   0.00206  -0.00097   0.00110   2.15921
    A2        2.09537   0.00042   0.00063   0.00223   0.00285   2.09821
    A3        2.02967   0.00005  -0.00269  -0.00123  -0.00392   2.02574
    A4        2.08193   0.00037   0.00022   0.00097   0.00118   2.08311
    A5        2.09220  -0.00038   0.00002  -0.00190  -0.00188   2.09033
    A6        2.10899   0.00001  -0.00025   0.00090   0.00065   2.10965
    A7        2.04252   0.00071  -0.00078   0.00109   0.00030   2.04282
    A8        2.11190  -0.00019   0.00042   0.00019   0.00060   2.11250
    A9        2.12870  -0.00052   0.00035  -0.00135  -0.00100   2.12769
   A10        2.08112   0.00035   0.00025   0.00074   0.00099   2.08211
   A11        2.10415   0.00008  -0.00064   0.00128   0.00063   2.10478
   A12        2.09790  -0.00043   0.00039  -0.00201  -0.00162   2.09628
   A13        2.15927  -0.00034   0.00207  -0.00045   0.00163   2.16090
   A14        2.09471   0.00031   0.00058   0.00163   0.00221   2.09692
   A15        2.02921   0.00003  -0.00266  -0.00118  -0.00384   2.02537
   A16        2.04342  -0.00062  -0.00383  -0.00138  -0.00519   2.03822
   A17        1.93187  -0.00066   0.00063  -0.00356  -0.00296   1.92890
   A18        1.90162   0.00041  -0.00325   0.00478   0.00151   1.90313
   A19        1.89731   0.00037   0.00023  -0.00070  -0.00052   1.89679
   A20        1.87297   0.00043  -0.00178   0.00467   0.00289   1.87585
   A21        1.98744  -0.00046   0.00378  -0.00617  -0.00241   1.98503
   A22        1.87004  -0.00002   0.00012   0.00172   0.00186   1.87190
   A23        1.92610   0.00019  -0.00024   0.00304   0.00277   1.92887
   A24        1.93033   0.00014   0.00137   0.00333   0.00467   1.93500
   A25        1.86916   0.00011   0.00288   0.00544   0.00826   1.87742
    D1       -0.00542   0.00004  -0.00042   0.00148   0.00106  -0.00436
    D2        3.12411   0.00000  -0.00161  -0.00064  -0.00225   3.12186
    D3       -3.13662  -0.00008   0.00036  -0.00235  -0.00199  -3.13862
    D4       -0.00709  -0.00011  -0.00083  -0.00447  -0.00530  -0.01239
    D5        0.00327  -0.00004   0.00019  -0.00125  -0.00106   0.00220
    D6        3.13483   0.00007  -0.00056   0.00247   0.00191   3.13674
    D7        0.00393  -0.00001   0.00028  -0.00129  -0.00102   0.00291
    D8       -3.12544   0.00009   0.00133   0.00494   0.00627  -3.11917
    D9       -3.12549   0.00002   0.00148   0.00087   0.00234  -3.12314
   D10        0.02833   0.00013   0.00252   0.00710   0.00963   0.03797
   D11       -0.00082   0.00001   0.00005   0.00102   0.00107   0.00025
   D12       -3.13635   0.00000   0.00035   0.00078   0.00113  -3.13522
   D13        3.12842  -0.00009  -0.00101  -0.00527  -0.00627   3.12215
   D14       -0.00711  -0.00010  -0.00071  -0.00551  -0.00622  -0.01333
   D15        1.40166   0.00001   0.01229   0.06614   0.07842   1.48008
   D16       -2.82593   0.00039   0.00847   0.07265   0.08112  -2.74481
   D17       -0.79352   0.00079   0.00693   0.07694   0.08387  -0.70964
   D18       -1.72710   0.00011   0.01339   0.07267   0.08606  -1.64104
   D19        0.32850   0.00049   0.00957   0.07918   0.08875   0.41726
   D20        2.36091   0.00089   0.00804   0.08347   0.09151   2.45242
   D21       -0.00131  -0.00001  -0.00030  -0.00088  -0.00117  -0.00248
   D22        3.14119  -0.00007  -0.00019  -0.00271  -0.00290   3.13828
[...]
                 (A) (A) (A) (A) (A) (A) (A) (A) (A) (A) (A) (A)
                 (A) (A) (A) (A) (A) (A) (A) (A) (A) (A) (A) (A)
                 (A) (A) (A) (A) (A) (A) (A) (A) (A) (A) (A) (A)
                 (A) (A) (A) (A) (A) (A) (A) (A) (A) (A) (A) (A)
                 (A) (A) (A) (A) (A) (A) (A) (A) (A) (A) (A) (A)
                 (A) (A) (A) (A) (A) (A) (A) (A) (A) (A) (A) (A)
                 (A) (A) (A) (A) (A) (A) (A) (A) (A) (A) (A)
 The electronic state is 1-A.
 Alpha  occ. eigenvalues --  -14.31053 -14.30883 -10.21612 -10.20796 -10.20657
 Alpha  occ. eigenvalues --  -10.20154 -10.18408 -10.17895  -0.94546  -0.90335
 Alpha  occ. eigenvalues --   -0.81420  -0.76379  -0.69560  -0.63502  -0.60431
 Alpha  occ. eigenvalues --   -0.52726  -0.50287  -0.49480  -0.47015  -0.44737
 Alpha  occ. eigenvalues --   -0.43175  -0.42483  -0.39586  -0.38419  -0.36421
 Alpha  occ. eigenvalues --   -0.28666  -0.26797  -0.26124  -0.25765
 Alpha virt. eigenvalues --   -0.03702  -0.02375  -0.01605   0.00214   0.00913
 Alpha virt. eigenvalues --    0.01513   0.02660   0.03553   0.04140   0.05750
 Alpha virt. eigenvalues --    0.06350   0.06921   0.07684   0.08335   0.09573
 Alpha virt. eigenvalues --    0.10042   0.10410   0.10924   0.11363   0.12378
 Alpha virt. eigenvalues --    0.12641   0.12853   0.13395   0.13809   0.14331
 Alpha virt. eigenvalues --    0.15016   0.15165   0.15595   0.16287   0.16949
 Alpha virt. eigenvalues --    0.17375   0.17898   0.19368   0.19548   0.20329
 Alpha virt. eigenvalues --    0.21377   0.21977   0.22795   0.23347   0.24404
 Alpha virt. eigenvalues --    0.24736   0.25542   0.25676   0.26792   0.27283
 Alpha virt. eigenvalues --    0.27908   0.29895   0.30324   0.30608   0.31614
 Alpha virt. eigenvalues --    0.32146   0.32538   0.33318   0.34926   0.37065
 Alpha virt. eigenvalues --    0.38594   0.38802   0.48547   0.50117   0.51243
 Alpha virt. eigenvalues --    0.52170   0.53368   0.55656   0.56325   0.57258
 Alpha virt. eigenvalues --    0.57647   0.58096   0.61448   0.61640   0.62656
 Alpha virt. eigenvalues --    0.63585   0.64471   0.65534   0.67000   0.67642
 Alpha virt. eigenvalues --    0.71372   0.72666   0.74050   0.75850   0.76689
 Alpha virt. eigenvalues --    0.78839   0.80221   0.81026   0.83687   0.85174
 Alpha virt. eigenvalues --    0.86712   0.89332   0.90500   0.91222   0.91505
 Alpha virt. eigenvalues --    0.92033   0.93580   0.98184   0.99708   1.00468
 Alpha virt. eigenvalues --    1.04463   1.06093   1.08042   1.08502   1.09308
 Alpha virt. eigenvalues --    1.10199   1.19603   1.22939   1.29715   1.31038
 Alpha virt. eigenvalues --    1.37483   1.39102   1.40098   1.43568   1.48476
 Alpha virt. eigenvalues --    1.53141   1.54230   1.54925   1.57367   1.58488
 Alpha virt. eigenvalues --    1.59142   1.61515   1.64354   1.65576   1.66631
 Alpha virt. eigenvalues --    1.69599   1.71924   1.74093   1.76846   1.77721
 Alpha virt. eigenvalues --    1.78580   1.81495   1.81824   1.88176   1.90304
 Alpha virt. eigenvalues --    1.91829   1.95202   1.96209   1.99052   2.00750
 Alpha virt. eigenvalues --    2.03230   2.06435   2.09531   2.10084   2.15035
 Alpha virt. eigenvalues --    2.17942   2.25211   2.27133   2.33017   2.36135
 Alpha virt. eigenvalues --    2.40791   2.45424   2.45836   2.46549   2.49284
 Alpha virt. eigenvalues --    2.52813   2.57589   2.59652   2.60793   2.63680
 Alpha virt. eigenvalues --    2.64533   2.70124   2.72120   2.73504   2.74131
 Alpha virt. eigenvalues --    2.75877   2.76903   2.78201   2.81793   2.83567
 Alpha virt. eigenvalues --    2.85782   2.88369   2.90682   2.90947   2.96482
 Alpha virt. eigenvalues --    2.97477   2.99136   3.00204   3.02916   3.14540
 Alpha virt. eigenvalues --    3.17911   3.23110   3.37536   3.42767   3.50491
 Alpha virt. eigenvalues --    3.55342   3.64226   3.67247   3.74755   3.80763
 Alpha virt. eigenvalues --    3.93091   4.01646   4.06772   4.11483   4.27681
 Alpha virt. eigenvalues --    4.41324   4.49102   4.72641   4.85724   5.23054
 Alpha virt. eigenvalues --   23.67198  23.85427  23.92797  24.00207  24.09045
 Alpha virt. eigenvalues --   24.12796  35.58527  35.65788
          Condensed to atoms (all electrons):
               1          2          3          4          5          6
     1  C    6.322879  -0.431736   0.092280  -0.476005   0.568699   0.066178
     2  C   -0.431736   8.312202  -1.239642  -0.653390  -0.541211   0.133902
     3  C    0.092280  -1.239642   7.378096  -0.142744   0.248352   0.064128
     4  C   -0.476005  -0.653390  -0.142744   7.939553  -0.878960   0.179479
     5  C    0.568699  -0.541211   0.248352  -0.878960   6.778298   0.050079
     6  N    0.066178   0.133902   0.064128   0.179479   0.050079   6.744779
     7  C   -0.256859   0.390317  -0.639924  -0.407531  -0.175307   0.060541
     8  N   -0.017139  -0.032156   0.097611  -0.084587  -0.014263   0.000909
     9  H    0.514998  -0.130029  -0.000216  -0.058433   0.056518  -0.121419
    10  H    0.019722   0.270580  -0.041223   0.055996  -0.010467   0.003193
    11  H   -0.002921   0.031072  -0.016797   0.316617  -0.025981   0.003915
    12  H    0.060012  -0.049821   0.004052  -0.147545   0.524488  -0.122240
    13  H    0.006955  -0.093596  -0.002617   0.035695   0.005887  -0.000209
    14  H    0.013876   0.146339  -0.129949  -0.060136  -0.022976   0.001140
    15  H   -0.000323  -0.002675  -0.010709   0.021418  -0.001847   0.000157
    16  H   -0.002113   0.008874   0.005029  -0.029788   0.002610   0.000113
               7          8          9         10         11         12
     1  C   -0.256859  -0.017139   0.514998   0.019722  -0.002921   0.060012
     2  C    0.390317  -0.032156  -0.130029   0.270580   0.031072  -0.049821
     3  C   -0.639924   0.097611  -0.000216  -0.041223  -0.016797   0.004052
     4  C   -0.407531  -0.084587  -0.058433   0.055996   0.316617  -0.147545
     5  C   -0.175307  -0.014263   0.056518  -0.010467  -0.025981   0.524488
     6  N    0.060541   0.000909  -0.121419   0.003193   0.003915  -0.122240
     7  C    6.807340   0.111436   0.006926   0.018219   0.002338   0.002948
     8  N    0.111436   6.678823  -0.000176  -0.007165  -0.003190  -0.000604
     9  H    0.006926  -0.000176   0.566918  -0.005153   0.000430   0.002672
    10  H    0.018219  -0.007165  -0.005153   0.535428  -0.001287   0.000919
    11  H    0.002338  -0.003190   0.000430  -0.001287   0.463626  -0.006368
    12  H    0.002948  -0.000604   0.002672   0.000919  -0.006368   0.564480
    13  H    0.416738  -0.050716   0.000214   0.000258   0.001922  -0.000087
    14  H    0.386638  -0.103246  -0.000335   0.005118   0.003193  -0.000082
    15  H   -0.027167   0.370140   0.000039  -0.000314   0.002606  -0.000128
    16  H   -0.032249   0.403846  -0.000136  -0.000348  -0.001747  -0.000180
              13         14         15         16
     1  C    0.006955   0.013876  -0.000323  -0.002113
     2  C   -0.093596   0.146339  -0.002675   0.008874
     3  C   -0.002617  -0.129949  -0.010709   0.005029
     4  C    0.035695  -0.060136   0.021418  -0.029788
     5  C    0.005887  -0.022976  -0.001847   0.002610
     6  N   -0.000209   0.001140   0.000157   0.000113
     7  C    0.416738   0.386638  -0.027167  -0.032249
     8  N   -0.050716  -0.103246   0.370140   0.403846
     9  H    0.000214  -0.000335   0.000039  -0.000136
    10  H    0.000258   0.005118  -0.000314  -0.000348
    11  H    0.001922   0.003193   0.002606  -0.001747
    12  H   -0.000087  -0.000082  -0.000128  -0.000180
    13  H    0.544780  -0.040580  -0.008427   0.011530
    14  H   -0.040580   0.629151   0.005140  -0.008252
    15  H   -0.008427   0.005140   0.463065  -0.044135
    16  H    0.011530  -0.008252  -0.044135   0.475694
 Mulliken charges:
               1
     1  C   -0.478505
     2  C   -0.119030
     3  C    0.334273
     4  C    0.390363
     5  C   -0.563919
     6  N   -0.064645
     7  C   -0.664406
     8  N   -0.349522
     9  H    0.167181
    10  H    0.156526
    11  H    0.232574
    12  H    0.167484
    13  H    0.172254
    14  H    0.174961
    15  H    0.233161
    16  H    0.211251
 Sum of Mulliken charges =   0.00000
 Mulliken charges with hydrogens summed into heavy atoms:
               1
     1  C   -0.311324
     2  C    0.037496
     3  C    0.334273
     4  C    0.622936
     5  C   -0.396436
     6  N   -0.064645
     7  C   -0.317191
     8  N    0.094890
 Electronic spatial extent (au):  <R**2>=           1002.6044
 Charge=              0.0000 electrons
 Dipole moment (field-independent basis, Debye):
    X=              3.4007    Y=             -1.4709    Z=             -0.2500  Tot=              3.7136
 Quadrupole moment (field-independent basis, Debye-Ang):
   XX=            -49.5792   YY=            -45.0472   ZZ=            -48.7366
   XY=             -0.5692   XZ=             -1.1614   YZ=             -0.1243
 Traceless Quadrupole moment (field-independent basis, Debye-Ang):
   XX=             -1.7915   YY=              2.7405   ZZ=             -0.9490
   XY=             -0.5692   XZ=             -1.1614   YZ=             -0.1243
 Octapole moment (field-independent basis, Debye-Ang**2):
  XXX=             57.8717  YYY=             -0.1079  ZZZ=             -2.3393  XYY=             -8.3164
  XXY=            -11.9658  XXZ=             -2.2321  XZZ=              9.2191  YZZ=              0.9659
  YYZ=             -0.6849  XYZ=             -2.8756
 Hexadecapole moment (field-independent basis, Debye-Ang**3):
 XXXX=           -930.2000 YYYY=           -308.0019 ZZZZ=            -73.1975 XXXY=             20.0814
 XXXZ=             -9.4344 YYYX=             -8.5269 YYYZ=              3.0162 ZZZX=             -6.5543
 ZZZY=             -3.5687 XXYY=           -213.4725 XXZZ=           -165.6891 YYZZ=            -73.0941
 XXYZ=             -3.0015 YYXZ=             -0.8267 ZZXY=              2.2488
 N-N= 3.437228541582D+02 E-N=-1.484935084044D+03  KE= 3.415475221379D+02

 **********************************************************************

            Electrostatic Properties Using The SCF Density

 **********************************************************************

       Atomic Center    1 is at  -1.878862 -0.939439 -0.120080
       Atomic Center    2 is at  -0.529289 -1.272660 -0.028914
       Atomic Center    3 is at   0.417921 -0.257059  0.116863
       Atomic Center    4 is at  -0.054787  1.056136  0.152680
       Atomic Center    5 is at  -1.425029  1.284718  0.049581
       Atomic Center    6 is at  -2.336887  0.315336 -0.083667
       Atomic Center    7 is at   1.890790 -0.582913  0.263956
       Atomic Center    8 is at   2.749923  0.475614 -0.270828
       Atomic Center    9 is at  -2.627152 -1.719245 -0.233553
       Atomic Center   10 is at  -0.225599 -2.313544 -0.075319
       Atomic Center   11 is at   0.640298  1.880142  0.253883
       Atomic Center   12 is at  -1.810568  2.300371  0.075269
       Atomic Center   13 is at   2.115064 -0.676194  1.333116
       Atomic Center   14 is at   2.073694 -1.573885 -0.177386
       Atomic Center   15 is at   3.718424  0.321546 -0.015037
       Atomic Center   16 is at   2.700127  0.511462 -1.284019
 -----------------------------------------------------------------

              Electrostatic Properties (Atomic Units)

 -----------------------------------------------------------------
    Center     Electric         -------- Electric Field --------
               Potential          X             Y             Z
 -----------------------------------------------------------------
    1 Atom    -14.743474      0.001350     -0.005540     -0.000146
    2 Atom    -14.767729     -0.000245     -0.000180     -0.000346
    3 Atom    -14.750515      0.002349      0.000013     -0.000132
    4 Atom    -14.772979      0.000594      0.001635      0.000341
    5 Atom    -14.744907      0.003548      0.004625      0.000544
    6 Atom    -18.412520     -0.043133      0.009182     -0.003046
    7 Atom    -14.728192     -0.002881     -0.002925      0.000739
    8 Atom    -18.402030     -0.011364      0.030084      0.013563
    9 Atom     -1.109987     -0.013413     -0.013591     -0.002025
   10 Atom     -1.094982      0.005297     -0.018288     -0.000796
   11 Atom     -1.105375      0.012568      0.014881      0.001816
   12 Atom     -1.112307     -0.007034      0.017883      0.000451
   13 Atom     -1.101886      0.003568     -0.001546      0.017559
   14 Atom     -1.112799      0.003244     -0.015834     -0.007323
   15 Atom     -1.050861      0.020507     -0.002748      0.005443
   16 Atom     -1.052554     -0.001151      0.001299     -0.021046
 -----------------------------------------------------------------
 -----------------------------------------------------
    Center         ---- Electric Field Gradient ----
                     XX            YY            ZZ
 -----------------------------------------------------
    1 Atom     -500.790747   -500.897220   -501.335815
    2 Atom     -500.755649   -500.829148   -501.205494
    3 Atom     -500.914399   -500.809027   -501.428870
    4 Atom     -500.779792   -500.795920   -501.256141
    5 Atom     -500.838664   -500.860167   -501.351842
    6 Atom     -813.460992   -814.766774   -815.206209
    7 Atom     -500.310656   -500.306876   -500.167789
    8 Atom     -813.163931   -812.111757   -813.035810
    9 Atom       -1.923318     -1.947849     -1.695448
   10 Atom       -1.726666     -2.115469     -1.667206
   11 Atom       -1.858270     -1.952822     -1.664634
   12 Atom       -1.765670     -2.110516     -1.691306
   13 Atom       -1.720709     -1.699713     -2.115530
   14 Atom       -1.737094     -2.064373     -1.785945
   15 Atom       -2.183440     -1.621798     -1.683126
   16 Atom       -1.652597     -1.604969     -2.223960
 -----------------------------------------------------
 -----------------------------------------------------
    Center         ---- Electric Field Gradient ----
                     XY            XZ            YZ
 -----------------------------------------------------
    1 Atom        0.037025      0.050531      0.030589
    2 Atom        0.010342      0.033268      0.029038
    3 Atom        0.020396      0.044042      0.037761
    4 Atom       -0.001524      0.042450      0.015183
    5 Atom       -0.073699      0.040315      0.022651
    6 Atom       -0.285445      0.137991      0.002287
    7 Atom       -0.098444      0.073319      0.099242
    8 Atom       -0.500433     -0.125891      0.577995
    9 Atom       -0.225218     -0.034152     -0.035662
   10 Atom        0.124399      0.003924     -0.021033
   11 Atom       -0.225991     -0.030134     -0.034529
   12 Atom        0.149439      0.002283     -0.011419
   13 Atom        0.001168     -0.087089      0.039025
   14 Atom        0.061518      0.033907     -0.157070
   15 Atom        0.076683     -0.145295      0.050799
   16 Atom       -0.021282     -0.034113      0.030478
 -----------------------------------------------------
 -----------------------------------------------------
    Center         ---- Electric Field Gradient ----
                   ----       Eigenvalues       ----
 -----------------------------------------------------
    1 Atom     -501.342118   -500.908392   -500.773272
    2 Atom     -501.210031   -500.829089   -500.751171
    3 Atom     -501.434676   -500.915723   -500.801897
    4 Atom     -501.260396   -500.795421   -500.776037
    5 Atom     -501.356638   -500.919534   -500.774502
    6 Atom     -815.218548   -814.824094   -813.391334
    7 Atom     -500.458552   -500.213415   -500.113354
    8 Atom     -813.422824   -813.225857   -811.662817
    9 Atom       -2.166313     -1.710036     -1.690266
   10 Atom       -2.152798     -1.690459     -1.666083
   11 Atom       -2.140834     -1.674840     -1.660052
   12 Atom       -2.166541     -1.710103     -1.690848
   13 Atom       -2.137262     -1.706853     -1.691837
   14 Atom       -2.147004     -1.727665     -1.712743
   15 Atom       -2.235019     -1.660279     -1.593066
   16 Atom       -2.227357     -1.659974     -1.594195
 -----------------------------------------------------
 -----------------------------------------------------
    Center         ---- Electric Field Gradient ----
                       ( tensor representation )
                   3XX-RR        3YY-RR        3ZZ-RR
 -----------------------------------------------------
    1 Atom        0.217180      0.110708     -0.327888
    2 Atom        0.174448      0.100949     -0.275397
    3 Atom        0.136366      0.241739     -0.378105
    4 Atom        0.164159      0.148031     -0.312190
    5 Atom        0.178227      0.156724     -0.334951
    6 Atom        1.016999     -0.288782     -0.728217
    7 Atom       -0.048882     -0.045102      0.093985
    8 Atom       -0.393432      0.658743     -0.265310
    9 Atom       -0.067779     -0.092311      0.160091
   10 Atom        0.109781     -0.279023      0.169241
   11 Atom       -0.033028     -0.127580      0.160608
   12 Atom        0.090160     -0.254685      0.164525
   13 Atom        0.124608      0.145605     -0.270213
   14 Atom        0.125377     -0.201902      0.076525
   15 Atom       -0.353986      0.207657      0.146329
   16 Atom        0.174578      0.222206     -0.396784
 -----------------------------------------------------
 -----------------------------------------------------
    Center         ---- Electric Field Gradient ----
                       ( tensor representation )
                   ----       Eigenvalues       ----
 -----------------------------------------------------
    1 Atom       -0.334191      0.099535      0.234655
    2 Atom       -0.279934      0.101008      0.178926
    3 Atom       -0.383911      0.135043      0.248869
    4 Atom       -0.316445      0.148531      0.167914
    5 Atom       -0.339747      0.097357      0.242390
    6 Atom       -0.740556     -0.346102      1.086658
    7 Atom       -0.196778      0.048359      0.148420
    8 Atom       -0.652324     -0.455358      1.107682
    9 Atom       -0.310775      0.145503      0.165272
   10 Atom       -0.316351      0.145988      0.170363
   11 Atom       -0.315592      0.150402      0.165190
   12 Atom       -0.310710      0.145728      0.164982
   13 Atom       -0.291945      0.138464      0.153480
   14 Atom       -0.284533      0.134806      0.149727
   15 Atom       -0.405564      0.169176      0.236388
   16 Atom       -0.400182      0.167201      0.232980
 -----------------------------------------------------

 Test job not archived.
 1|1|UNPC-NP-ALMACH|FOpt|RB3LYP|6-311++G(d,p)|C6H8N2|HERA|03-May-2018|0
 ||# RB3LYP/6-311++G** Opt Test prop=EFG||4-aminomethylpyridine||0,1|C,
 0.9041034808,1.8324792074,-0.8224996025|C,1.2654976406,0.6905980612,-0
 .1110247975|C,0.3604025724,-0.3679856735,-0.0105027469|C,-0.8791350545
 ,-0.2091195493,-0.6330175807|C,-1.1453552575,0.9744657137,-1.317630513
 9|N,-0.2796725973,1.9886465837,-1.422381672|C,0.7340771481,-1.64392195
 68,0.7171758811|N,-0.4288938699,-2.3034758513,1.3147287715|H,1.5983137
 514,2.6640155772,-0.9092736855|H,2.2414096126,0.634224761,0.3603967299
 |H,-1.6198012812,-0.9968223555,-0.5754918323|H,-2.1049233668,1.1153854
 368,-1.8077560361|H,1.1647537388,-2.3398521589,-0.0124137755|H,1.53578
 4349,-1.4134283323,1.4343942584|H,-0.1897511171,-3.2303387522,1.647740
 9567|H,-0.7852097495,-1.7741707112,2.1041556454||Version=EM64W-G09RevD
 .01|State=1-A|HF=-343.0441697|RMSD=5.009e-009|RMSF=5.227e-005|Dipole=0
 .5338253,-0.9970318,0.9250016|Quadrupole=1.8191638,-1.9427417,0.123577
 9,0.3187235,0.6997339,-0.0642403|PG=C01 [X(C6H8N2)]||@


 LEARN FROM YESTERDAY,
 LIVE FOR TODAY,
 LOOK TO TOMORROW,
 REST THIS AFTERNOON.

           -- SNOOPY
 Job cpu time:       0 days  0 hours  6 minutes  5.0 seconds.
 File lengths (MBytes):  RWF=     26 Int=      0 D2E=      0 Chk=      5 Scr=      1
 Normal termination of Gaussian 09 at Thu May 03 11:42:00 2018.
