 Entering Link 1 = C:\G09W\l1.exe PID=      1652.
  
 Copyright (c) 1988,1990,1992,1993,1995,1998,2003,2009,2013,
            Gaussian, Inc.  All Rights Reserved.
  
 This is part of the Gaussian(R) 09 program.  It is based on
 the Gaussian(R) 03 system (copyright 2003, Gaussian, Inc.),
 the Gaussian(R) 98 system (copyright 1998, Gaussian, Inc.),
 the Gaussian(R) 94 system (copyright 1995, Gaussian, Inc.),
 the Gaussian 92(TM) system (copyright 1992, Gaussian, Inc.),
 the Gaussian 90(TM) system (copyright 1990, Gaussian, Inc.),
 the Gaussian 88(TM) system (copyright 1988, Gaussian, Inc.),
 the Gaussian 86(TM) system (copyright 1986, Carnegie Mellon
 University), and the Gaussian 82(TM) system (copyright 1983,
 Carnegie Mellon University). Gaussian is a federally registered
 trademark of Gaussian, Inc.
  
 This software contains proprietary and confidential information,
 including trade secrets, belonging to Gaussian, Inc.
  
 This software is provided under written license and may be
 used, copied, transmitted, or stored only in accord with that
 written license.
  
 The following legend is applicable only to US Government
 contracts under FAR:
  
                    RESTRICTED RIGHTS LEGEND
  
 Use, reproduction and disclosure by the US Government is
 subject to restrictions as set forth in subparagraphs (a)
 and (c) of the Commercial Computer Software - Restricted
 Rights clause in FAR 52.227-19.
  
 Gaussian, Inc.
 340 Quinnipiac St., Bldg. 40, Wallingford CT 06492
  
  
 ---------------------------------------------------------------
 Warning -- This program may not be used in any manner that
 competes with the business of Gaussian, Inc. or will provide
 assistance to any competitor of Gaussian, Inc.  The licensee
 of this program is prohibited from giving any competitor of
 Gaussian, Inc. access to this program.  By using this program,
 the user acknowledges that Gaussian, Inc. is engaged in the
 business of creating and licensing software in the field of
 computational chemistry and represents and warrants to the
 licensee that it is not a competitor of Gaussian, Inc. and that
 it will not use this program in any manner prohibited above.
 ---------------------------------------------------------------
  

 Cite this work as:
 Gaussian 09, Revision D.01,
 M. J. Frisch, G. W. Trucks, H. B. Schlegel, G. E. Scuseria, 
 M. A. Robb, J. R. Cheeseman, G. Scalmani, V. Barone, B. Mennucci, 
 G. A. Petersson, H. Nakatsuji, M. Caricato, X. Li, H. P. Hratchian, 
 A. F. Izmaylov, J. Bloino, G. Zheng, J. L. Sonnenberg, M. Hada, 
 M. Ehara, K. Toyota, R. Fukuda, J. Hasegawa, M. Ishida, T. Nakajima, 
 Y. Honda, O. Kitao, H. Nakai, T. Vreven, J. A. Montgomery, Jr., 
 J. E. Peralta, F. Ogliaro, M. Bearpark, J. J. Heyd, E. Brothers, 
 K. N. Kudin, V. N. Staroverov, T. Keith, R. Kobayashi, J. Normand, 
 K. Raghavachari, A. Rendell, J. C. Burant, S. S. Iyengar, J. Tomasi, 
 M. Cossi, N. Rega, J. M. Millam, M. Klene, J. E. Knox, J. B. Cross, 
 V. Bakken, C. Adamo, J. Jaramillo, R. Gomperts, R. E. Stratmann, 
 O. Yazyev, A. J. Austin, R. Cammi, C. Pomelli, J. W. Ochterski, 
 R. L. Martin, K. Morokuma, V. G. Zakrzewski, G. A. Voth, 
 P. Salvador, J. J. Dannenberg, S. Dapprich, A. D. Daniels, 
 O. Farkas, J. B. Foresman, J. V. Ortiz, J. Cioslowski, 
 and D. J. Fox, Gaussian, Inc., Wallingford CT, 2013.
 
 ******************************************
 Gaussian 09:  EM64W-G09RevD.01 13-Apr-2013
                22-Aug-2018 
 ******************************************
 %Chk=Anth_193.chk
 %Mem=64GB
 %NProcShared=20
 Will use up to   20 processors via shared memory.
 -------------------------------------
 # RB3LYP/6-311++G** Opt Test prop=EFG
 -------------------------------------
 1/14=-1,18=20,19=15,26=3,38=1/1,3;
 2/9=110,12=2,17=6,18=5,40=1/2;
 3/5=4,6=6,7=1111,11=2,16=1,25=1,30=1,71=1,74=-5,116=1/1,2,3;
 4//1;
 5/5=2,38=5/2;
 6/7=2,8=2,9=2,10=2,14=1,28=1/1,2;
 7//1,2,3,16;
 1/14=-1,18=20,19=15,26=3/3(2);
 2/9=110/2;
 99//99;
 2/9=110/2;
 3/5=4,6=6,7=1111,11=2,16=1,25=1,30=1,71=1,74=-5,116=1/1,2,3;
 4/5=5,16=3,69=1/1;
 5/5=2,38=5/2;
 7//1,2,3,16;
 1/14=-1,18=20,19=15,26=3/3(-5);
 2/9=110/2;
 6/7=2,8=2,9=2,10=2,14=1,19=2,28=1/1,2;
 99/9=1/99;
 -------
 C13NH24
 -------
 Symbolic Z-matrix:
 Charge =  1 Multiplicity = 1
 C                     0.6597   -1.7368    1.44485 
 C                     1.94303  -1.85831   0.60887 
 C                     1.64576  -1.4036   -0.82807 
 C                     0.55558  -2.29759  -1.43869 
 C                    -0.72084  -2.17373  -0.59293 
 C                    -0.43505  -2.63235   0.84532 
 C                     0.18582  -0.27131   1.45326 
 C                    -1.19772  -0.7092   -0.58271 
 C                    -0.12084   0.2268    0.01933 
 C                     1.16894   0.06095  -0.82165 
 N                    -0.6005    1.70343   0.02762 
 C                     0.41425   2.64334   0.67459 
 C                    -0.84993   2.24438  -1.37841 
 C                    -1.90693   1.88877   0.7961 
 H                     0.87175  -2.0682    2.49239 
 H                     2.75398  -1.23381   1.05165 
 H                     2.30861  -2.91191   0.613 
 H                     2.57787  -1.49164  -1.44089 
 H                     0.89785  -3.35855  -1.46883 
 H                     0.35166  -1.99449  -2.49239 
 H                    -1.51749  -2.82424  -1.03373 
 H                    -1.36256  -2.57389   1.46178 
 H                    -0.10927  -3.6989    0.85333 
 H                    -0.71028  -0.21044   2.11016 
 H                     0.98946   0.33159   1.93236 
 H                    -2.14307  -0.67501   0.00379 
 H                    -1.44731  -0.4285   -1.63016 
 H                     2.00105   0.68478  -0.4258 
 H                     1.00682   0.35878  -1.88178 
 H                     0.06021   3.6989    0.64626 
 H                     0.58117   2.41402   1.74866 
 H                     1.394     2.63857   0.15164 
 H                    -1.21671   3.29543  -1.34607 
 H                    -1.62704   1.66934  -1.92513 
 H                     0.07456   2.27051  -1.9938 
 H                    -2.75398   1.33905   0.33302 
 H                    -1.82254   1.58406   1.86078 
 H                    -2.21733   2.95825   0.81027 
 

 GradGradGradGradGradGradGradGradGradGradGradGradGradGradGradGradGradGrad
 Berny optimization.
 Initialization pass.
                           ----------------------------
                           !    Initial Parameters    !
                           ! (Angstroms and Degrees)  !
 --------------------------                            --------------------------
 ! Name  Definition              Value          Derivative Info.                !
 --------------------------------------------------------------------------------
 ! R1    R(1,2)                  1.5364         estimate D2E/DX2                !
 ! R2    R(1,6)                  1.5362         estimate D2E/DX2                !
 ! R3    R(1,7)                  1.5402         estimate D2E/DX2                !
 ! R4    R(1,15)                 1.119          estimate D2E/DX2                !
 ! R5    R(2,3)                  1.5362         estimate D2E/DX2                !
 ! R6    R(2,16)                 1.1152         estimate D2E/DX2                !
 ! R7    R(2,17)                 1.1152         estimate D2E/DX2                !
 ! R8    R(3,4)                  1.5364         estimate D2E/DX2                !
 ! R9    R(3,10)                 1.5402         estimate D2E/DX2                !
 ! R10   R(3,18)                 1.119          estimate D2E/DX2                !
 ! R11   R(4,5)                  1.5362         estimate D2E/DX2                !
 ! R12   R(4,19)                 1.1152         estimate D2E/DX2                !
 ! R13   R(4,20)                 1.1152         estimate D2E/DX2                !
 ! R14   R(5,6)                  1.5364         estimate D2E/DX2                !
 ! R15   R(5,8)                  1.5402         estimate D2E/DX2                !
 ! R16   R(5,21)                 1.119          estimate D2E/DX2                !
 ! R17   R(6,22)                 1.1152         estimate D2E/DX2                !
 ! R18   R(6,23)                 1.1152         estimate D2E/DX2                !
 ! R19   R(7,9)                  1.5486         estimate D2E/DX2                !
 ! R20   R(7,24)                 1.1128         estimate D2E/DX2                !
 ! R21   R(7,25)                 1.113          estimate D2E/DX2                !
 ! R22   R(8,9)                  1.5486         estimate D2E/DX2                !
 ! R23   R(8,26)                 1.113          estimate D2E/DX2                !
 ! R24   R(8,27)                 1.1128         estimate D2E/DX2                !
 ! R25   R(9,10)                 1.5486         estimate D2E/DX2                !
 ! R26   R(9,11)                 1.5526         estimate D2E/DX2                !
 ! R27   R(10,28)                1.1128         estimate D2E/DX2                !
 ! R28   R(10,29)                1.113          estimate D2E/DX2                !
 ! R29   R(11,12)                1.527          estimate D2E/DX2                !
 ! R30   R(11,13)                1.527          estimate D2E/DX2                !
 ! R31   R(11,14)                1.527          estimate D2E/DX2                !
 ! R32   R(12,30)                1.1137         estimate D2E/DX2                !
 ! R33   R(12,31)                1.1109         estimate D2E/DX2                !
 ! R34   R(12,32)                1.1106         estimate D2E/DX2                !
 ! R35   R(13,33)                1.1137         estimate D2E/DX2                !
 ! R36   R(13,34)                1.1106         estimate D2E/DX2                !
 ! R37   R(13,35)                1.1109         estimate D2E/DX2                !
 ! R38   R(14,36)                1.1109         estimate D2E/DX2                !
 ! R39   R(14,37)                1.1106         estimate D2E/DX2                !
 ! R40   R(14,38)                1.1137         estimate D2E/DX2                !
 ! A1    A(2,1,6)              109.6817         estimate D2E/DX2                !
 ! A2    A(2,1,7)              109.5851         estimate D2E/DX2                !
 ! A3    A(2,1,15)             109.1263         estimate D2E/DX2                !
 ! A4    A(6,1,7)              109.7281         estimate D2E/DX2                !
 ! A5    A(6,1,15)             109.1317         estimate D2E/DX2                !
 ! A6    A(7,1,15)             109.572          estimate D2E/DX2                !
 ! A7    A(1,2,3)              108.8992         estimate D2E/DX2                !
 ! A8    A(1,2,16)             110.3083         estimate D2E/DX2                !
 ! A9    A(1,2,17)             110.2737         estimate D2E/DX2                !
 ! A10   A(3,2,16)             110.2644         estimate D2E/DX2                !
 ! A11   A(3,2,17)             110.2754         estimate D2E/DX2                !
 ! A12   A(16,2,17)            106.81           estimate D2E/DX2                !
 ! A13   A(2,3,4)              109.6842         estimate D2E/DX2                !
 ! A14   A(2,3,10)             109.7221         estimate D2E/DX2                !
 ! A15   A(2,3,18)             109.1343         estimate D2E/DX2                !
 ! A16   A(4,3,10)             109.5889         estimate D2E/DX2                !
 ! A17   A(4,3,18)             109.1246         estimate D2E/DX2                !
 ! A18   A(10,3,18)            109.5708         estimate D2E/DX2                !
 ! A19   A(3,4,5)              108.8959         estimate D2E/DX2                !
 ! A20   A(3,4,19)             110.2752         estimate D2E/DX2                !
 ! A21   A(3,4,20)             110.3111         estimate D2E/DX2                !
 ! A22   A(5,4,19)             110.2789         estimate D2E/DX2                !
 ! A23   A(5,4,20)             110.2633         estimate D2E/DX2                !
 ! A24   A(19,4,20)            106.8067         estimate D2E/DX2                !
 ! A25   A(4,5,6)              109.6793         estimate D2E/DX2                !
 ! A26   A(4,5,8)              109.7288         estimate D2E/DX2                !
 ! A27   A(4,5,21)             109.1351         estimate D2E/DX2                !
 ! A28   A(6,5,8)              109.5851         estimate D2E/DX2                !
 ! A29   A(6,5,21)             109.1269         estimate D2E/DX2                !
 ! A30   A(8,5,21)             109.5696         estimate D2E/DX2                !
 ! A31   A(1,6,5)              108.8973         estimate D2E/DX2                !
 ! A32   A(1,6,22)             110.2674         estimate D2E/DX2                !
 ! A33   A(1,6,23)             110.2762         estimate D2E/DX2                !
 ! A34   A(5,6,22)             110.3099         estimate D2E/DX2                !
 ! A35   A(5,6,23)             110.2752         estimate D2E/DX2                !
 ! A36   A(22,6,23)            106.805          estimate D2E/DX2                !
 ! A37   A(1,7,9)              111.2173         estimate D2E/DX2                !
 ! A38   A(1,7,24)             107.64           estimate D2E/DX2                !
 ! A39   A(1,7,25)             107.193          estimate D2E/DX2                !
 ! A40   A(9,7,24)             111.6879         estimate D2E/DX2                !
 ! A41   A(9,7,25)             111.5494         estimate D2E/DX2                !
 ! A42   A(24,7,25)            107.32           estimate D2E/DX2                !
 ! A43   A(5,8,9)              111.222          estimate D2E/DX2                !
 ! A44   A(5,8,26)             107.1979         estimate D2E/DX2                !
 ! A45   A(5,8,27)             107.6412         estimate D2E/DX2                !
 ! A46   A(9,8,26)             111.5429         estimate D2E/DX2                !
 ! A47   A(9,8,27)             111.6813         estimate D2E/DX2                !
 ! A48   A(26,8,27)            107.3231         estimate D2E/DX2                !
 ! A49   A(7,9,8)              107.6531         estimate D2E/DX2                !
 ! A50   A(7,9,10)             107.6649         estimate D2E/DX2                !
 ! A51   A(7,9,11)             111.2316         estimate D2E/DX2                !
 ! A52   A(8,9,10)             107.6561         estimate D2E/DX2                !
 ! A53   A(8,9,11)             111.2282         estimate D2E/DX2                !
 ! A54   A(10,9,11)            111.2262         estimate D2E/DX2                !
 ! A55   A(3,10,9)             111.2185         estimate D2E/DX2                !
 ! A56   A(3,10,28)            107.6408         estimate D2E/DX2                !
 ! A57   A(3,10,29)            107.1907         estimate D2E/DX2                !
 ! A58   A(9,10,28)            111.6895         estimate D2E/DX2                !
 ! A59   A(9,10,29)            111.5469         estimate D2E/DX2                !
 ! A60   A(28,10,29)           107.3213         estimate D2E/DX2                !
 ! A61   A(9,11,12)            112.4807         estimate D2E/DX2                !
 ! A62   A(9,11,13)            112.4867         estimate D2E/DX2                !
 ! A63   A(9,11,14)            112.4848         estimate D2E/DX2                !
 ! A64   A(12,11,13)           106.2969         estimate D2E/DX2                !
 ! A65   A(12,11,14)           106.2968         estimate D2E/DX2                !
 ! A66   A(13,11,14)           106.2988         estimate D2E/DX2                !
 ! A67   A(11,12,30)           111.1841         estimate D2E/DX2                !
 ! A68   A(11,12,31)           112.4849         estimate D2E/DX2                !
 ! A69   A(11,12,32)           112.5883         estimate D2E/DX2                !
 ! A70   A(30,12,31)           105.5454         estimate D2E/DX2                !
 ! A71   A(30,12,32)           105.815          estimate D2E/DX2                !
 ! A72   A(31,12,32)           108.7729         estimate D2E/DX2                !
 ! A73   A(11,13,33)           111.1856         estimate D2E/DX2                !
 ! A74   A(11,13,34)           112.5903         estimate D2E/DX2                !
 ! A75   A(11,13,35)           112.4871         estimate D2E/DX2                !
 ! A76   A(33,13,34)           105.813          estimate D2E/DX2                !
 ! A77   A(33,13,35)           105.5428         estimate D2E/DX2                !
 ! A78   A(34,13,35)           108.7711         estimate D2E/DX2                !
 ! A79   A(11,14,36)           112.4887         estimate D2E/DX2                !
 ! A80   A(11,14,37)           112.5901         estimate D2E/DX2                !
 ! A81   A(11,14,38)           111.1871         estimate D2E/DX2                !
 ! A82   A(36,14,37)           108.7705         estimate D2E/DX2                !
 ! A83   A(36,14,38)           105.5439         estimate D2E/DX2                !
 ! A84   A(37,14,38)           105.8094         estimate D2E/DX2                !
 ! D1    D(6,1,2,3)             60.4388         estimate D2E/DX2                !
 ! D2    D(6,1,2,16)          -178.4264         estimate D2E/DX2                !
 ! D3    D(6,1,2,17)           -60.688          estimate D2E/DX2                !
 ! D4    D(7,1,2,3)            -60.0772         estimate D2E/DX2                !
 ! D5    D(7,1,2,16)            61.0576         estimate D2E/DX2                !
 ! D6    D(7,1,2,17)           178.796          estimate D2E/DX2                !
 ! D7    D(15,1,2,3)           179.9411         estimate D2E/DX2                !
 ! D8    D(15,1,2,16)          -58.9241         estimate D2E/DX2                !
 ! D9    D(15,1,2,17)           58.8144         estimate D2E/DX2                !
 ! D10   D(2,1,6,5)            -60.4424         estimate D2E/DX2                !
 ! D11   D(2,1,6,22)           178.3934         estimate D2E/DX2                !
 ! D12   D(2,1,6,23)            60.6846         estimate D2E/DX2                !
 ! D13   D(7,1,6,5)             59.9869         estimate D2E/DX2                !
 ! D14   D(7,1,6,22)           -61.1774         estimate D2E/DX2                !
 ! D15   D(7,1,6,23)          -178.8862         estimate D2E/DX2                !
 ! D16   D(15,1,6,5)          -179.9414         estimate D2E/DX2                !
 ! D17   D(15,1,6,22)           58.8944         estimate D2E/DX2                !
 ! D18   D(15,1,6,23)          -58.8144         estimate D2E/DX2                !
 ! D19   D(2,1,7,9)             60.3656         estimate D2E/DX2                !
 ! D20   D(2,1,7,24)          -176.9895         estimate D2E/DX2                !
 ! D21   D(2,1,7,25)           -61.8134         estimate D2E/DX2                !
 ! D22   D(6,1,7,9)            -60.1222         estimate D2E/DX2                !
 ! D23   D(6,1,7,24)            62.5227         estimate D2E/DX2                !
 ! D24   D(6,1,7,25)           177.6988         estimate D2E/DX2                !
 ! D25   D(15,1,7,9)          -179.9255         estimate D2E/DX2                !
 ! D26   D(15,1,7,24)          -57.2806         estimate D2E/DX2                !
 ! D27   D(15,1,7,25)           57.8955         estimate D2E/DX2                !
 ! D28   D(1,2,3,4)            -60.4359         estimate D2E/DX2                !
 ! D29   D(1,2,3,10)            59.9958         estimate D2E/DX2                !
 ! D30   D(1,2,3,18)          -179.9359         estimate D2E/DX2                !
 ! D31   D(16,2,3,4)           178.4024         estimate D2E/DX2                !
 ! D32   D(16,2,3,10)          -61.1658         estimate D2E/DX2                !
 ! D33   D(16,2,3,18)           58.9025         estimate D2E/DX2                !
 ! D34   D(17,2,3,4)            60.6899         estimate D2E/DX2                !
 ! D35   D(17,2,3,10)         -178.8784         estimate D2E/DX2                !
 ! D36   D(17,2,3,18)          -58.8101         estimate D2E/DX2                !
 ! D37   D(2,3,4,5)             60.4446         estimate D2E/DX2                !
 ! D38   D(2,3,4,19)           -60.6854         estimate D2E/DX2                !
 ! D39   D(2,3,4,20)          -178.4223         estimate D2E/DX2                !
 ! D40   D(10,3,4,5)           -60.0679         estimate D2E/DX2                !
 ! D41   D(10,3,4,19)          178.8021         estimate D2E/DX2                !
 ! D42   D(10,3,4,20)           61.0652         estimate D2E/DX2                !
 ! D43   D(18,3,4,5)           179.9505         estimate D2E/DX2                !
 ! D44   D(18,3,4,19)           58.8205         estimate D2E/DX2                !
 ! D45   D(18,3,4,20)          -58.9164         estimate D2E/DX2                !
 ! D46   D(2,3,10,9)           -60.1161         estimate D2E/DX2                !
 ! D47   D(2,3,10,28)           62.5321         estimate D2E/DX2                !
 ! D48   D(2,3,10,29)          177.7088         estimate D2E/DX2                !
 ! D49   D(4,3,10,9)            60.3734         estimate D2E/DX2                !
 ! D50   D(4,3,10,28)         -176.9784         estimate D2E/DX2                !
 ! D51   D(4,3,10,29)          -61.8016         estimate D2E/DX2                !
 ! D52   D(18,3,10,9)         -179.9182         estimate D2E/DX2                !
 ! D53   D(18,3,10,28)         -57.27           estimate D2E/DX2                !
 ! D54   D(18,3,10,29)          57.9068         estimate D2E/DX2                !
 ! D55   D(3,4,5,6)            -60.4464         estimate D2E/DX2                !
 ! D56   D(3,4,5,8)             59.9818         estimate D2E/DX2                !
 ! D57   D(3,4,5,21)          -179.9469         estimate D2E/DX2                !
 ! D58   D(19,4,5,6)            60.6813         estimate D2E/DX2                !
 ! D59   D(19,4,5,8)          -178.8905         estimate D2E/DX2                !
 ! D60   D(19,4,5,21)          -58.8191         estimate D2E/DX2                !
 ! D61   D(20,4,5,6)           178.3912         estimate D2E/DX2                !
 ! D62   D(20,4,5,8)           -61.1805         estimate D2E/DX2                !
 ! D63   D(20,4,5,21)           58.8908         estimate D2E/DX2                !
 ! D64   D(4,5,6,1)             60.4517         estimate D2E/DX2                !
 ! D65   D(4,5,6,22)          -178.41           estimate D2E/DX2                !
 ! D66   D(4,5,6,23)           -60.6759         estimate D2E/DX2                !
 ! D67   D(8,5,6,1)            -60.0637         estimate D2E/DX2                !
 ! D68   D(8,5,6,22)            61.0746         estimate D2E/DX2                !
 ! D69   D(8,5,6,23)           178.8087         estimate D2E/DX2                !
 ! D70   D(21,5,6,1)           179.9571         estimate D2E/DX2                !
 ! D71   D(21,5,6,22)          -58.9046         estimate D2E/DX2                !
 ! D72   D(21,5,6,23)           58.8296         estimate D2E/DX2                !
 ! D73   D(4,5,8,9)            -60.1142         estimate D2E/DX2                !
 ! D74   D(4,5,8,26)           177.7089         estimate D2E/DX2                !
 ! D75   D(4,5,8,27)            62.5263         estimate D2E/DX2                !
 ! D76   D(6,5,8,9)             60.3712         estimate D2E/DX2                !
 ! D77   D(6,5,8,26)           -61.8057         estimate D2E/DX2                !
 ! D78   D(6,5,8,27)          -176.9883         estimate D2E/DX2                !
 ! D79   D(21,5,8,9)          -179.9206         estimate D2E/DX2                !
 ! D80   D(21,5,8,26)           57.9025         estimate D2E/DX2                !
 ! D81   D(21,5,8,27)          -57.2801         estimate D2E/DX2                !
 ! D82   D(1,7,9,8)             57.8268         estimate D2E/DX2                !
 ! D83   D(1,7,9,10)           -57.9833         estimate D2E/DX2                !
 ! D84   D(1,7,9,11)           179.9191         estimate D2E/DX2                !
 ! D85   D(24,7,9,8)           -62.4536         estimate D2E/DX2                !
 ! D86   D(24,7,9,10)         -178.2637         estimate D2E/DX2                !
 ! D87   D(24,7,9,11)           59.6387         estimate D2E/DX2                !
 ! D88   D(25,7,9,8)           177.4456         estimate D2E/DX2                !
 ! D89   D(25,7,9,10)           61.6355         estimate D2E/DX2                !
 ! D90   D(25,7,9,11)          -60.4621         estimate D2E/DX2                !
 ! D91   D(5,8,9,7)            -57.9963         estimate D2E/DX2                !
 ! D92   D(5,8,9,10)            57.8196         estimate D2E/DX2                !
 ! D93   D(5,8,9,11)           179.9093         estimate D2E/DX2                !
 ! D94   D(26,8,9,7)            61.6274         estimate D2E/DX2                !
 ! D95   D(26,8,9,10)          177.4433         estimate D2E/DX2                !
 ! D96   D(26,8,9,11)          -60.467          estimate D2E/DX2                !
 ! D97   D(27,8,9,7)          -178.2769         estimate D2E/DX2                !
 ! D98   D(27,8,9,10)          -62.461          estimate D2E/DX2                !
 ! D99   D(27,8,9,11)           59.6286         estimate D2E/DX2                !
 ! D100  D(7,9,10,3)            57.8166         estimate D2E/DX2                !
 ! D101  D(7,9,10,28)          -62.4667         estimate D2E/DX2                !
 ! D102  D(7,9,10,29)          177.4316         estimate D2E/DX2                !
 ! D103  D(8,9,10,3)           -57.9915         estimate D2E/DX2                !
 ! D104  D(8,9,10,28)         -178.2749         estimate D2E/DX2                !
 ! D105  D(8,9,10,29)           61.6234         estimate D2E/DX2                !
 ! D106  D(11,9,10,3)          179.9176         estimate D2E/DX2                !
 ! D107  D(11,9,10,28)          59.6342         estimate D2E/DX2                !
 ! D108  D(11,9,10,29)         -60.4675         estimate D2E/DX2                !
 ! D109  D(7,9,11,12)           57.3727         estimate D2E/DX2                !
 ! D110  D(7,9,11,13)          177.3715         estimate D2E/DX2                !
 ! D111  D(7,9,11,14)          -62.6244         estimate D2E/DX2                !
 ! D112  D(8,9,11,12)          177.3682         estimate D2E/DX2                !
 ! D113  D(8,9,11,13)          -62.6331         estimate D2E/DX2                !
 ! D114  D(8,9,11,14)           57.371          estimate D2E/DX2                !
 ! D115  D(10,9,11,12)         -62.6363         estimate D2E/DX2                !
 ! D116  D(10,9,11,13)          57.3624         estimate D2E/DX2                !
 ! D117  D(10,9,11,14)         177.3665         estimate D2E/DX2                !
 ! D118  D(9,11,12,30)         178.5846         estimate D2E/DX2                !
 ! D119  D(9,11,12,31)         -63.2847         estimate D2E/DX2                !
 ! D120  D(9,11,12,32)          60.0429         estimate D2E/DX2                !
 ! D121  D(13,11,12,30)         55.0641         estimate D2E/DX2                !
 ! D122  D(13,11,12,31)        173.1947         estimate D2E/DX2                !
 ! D123  D(13,11,12,32)        -63.4777         estimate D2E/DX2                !
 ! D124  D(14,11,12,30)        -57.8973         estimate D2E/DX2                !
 ! D125  D(14,11,12,31)         60.2334         estimate D2E/DX2                !
 ! D126  D(14,11,12,32)       -176.439          estimate D2E/DX2                !
 ! D127  D(9,11,13,33)         178.5982         estimate D2E/DX2                !
 ! D128  D(9,11,13,34)          60.0566         estimate D2E/DX2                !
 ! D129  D(9,11,13,35)         -63.2719         estimate D2E/DX2                !
 ! D130  D(12,11,13,33)        -57.885          estimate D2E/DX2                !
 ! D131  D(12,11,13,34)       -176.4266         estimate D2E/DX2                !
 ! D132  D(12,11,13,35)         60.2449         estimate D2E/DX2                !
 ! D133  D(14,11,13,33)         55.0749         estimate D2E/DX2                !
 ! D134  D(14,11,13,34)        -63.4666         estimate D2E/DX2                !
 ! D135  D(14,11,13,35)        173.2048         estimate D2E/DX2                !
 ! D136  D(9,11,14,36)         -63.3016         estimate D2E/DX2                !
 ! D137  D(9,11,14,37)          60.0272         estimate D2E/DX2                !
 ! D138  D(9,11,14,38)         178.5651         estimate D2E/DX2                !
 ! D139  D(12,11,14,36)        173.1829         estimate D2E/DX2                !
 ! D140  D(12,11,14,37)        -63.4883         estimate D2E/DX2                !
 ! D141  D(12,11,14,38)         55.0496         estimate D2E/DX2                !
 ! D142  D(13,11,14,36)         60.2228         estimate D2E/DX2                !
 ! D143  D(13,11,14,37)       -176.4483         estimate D2E/DX2                !
 ! D144  D(13,11,14,38)        -57.9104         estimate D2E/DX2                !
 --------------------------------------------------------------------------------
 Trust Radius=3.00D-01 FncErr=1.00D-07 GrdErr=1.00D-06
 Number of steps in this run=    228 maximum allowed number of steps=    228.
 GradGradGradGradGradGradGradGradGradGradGradGradGradGradGradGradGradGrad

                          Input orientation:                          
 ---------------------------------------------------------------------
 Center     Atomic      Atomic             Coordinates (Angstroms)
 Number     Number       Type             X           Y           Z
 ---------------------------------------------------------------------
      1          6           0        0.659696   -1.736797    1.444850
      2          6           0        1.943033   -1.858305    0.608872
      3          6           0        1.645758   -1.403601   -0.828065
      4          6           0        0.555579   -2.297586   -1.438688
      5          6           0       -0.720842   -2.173731   -0.592927
      6          6           0       -0.435051   -2.632352    0.845321
      7          6           0        0.185819   -0.271309    1.453259
      8          6           0       -1.197719   -0.709201   -0.582708
      9          6           0       -0.120842    0.226804    0.019331
     10          6           0        1.168941    0.060951   -0.821647
     11          7           0       -0.600496    1.703427    0.027617
     12          6           0        0.414248    2.643337    0.674585
     13          6           0       -0.849926    2.244376   -1.378410
     14          6           0       -1.906929    1.888768    0.796104
     15          1           0        0.871753   -2.068203    2.492385
     16          1           0        2.753979   -1.233811    1.051654
     17          1           0        2.308608   -2.911914    0.613001
     18          1           0        2.577872   -1.491644   -1.440886
     19          1           0        0.897849   -3.358552   -1.468825
     20          1           0        0.351655   -1.994494   -2.492385
     21          1           0       -1.517492   -2.824242   -1.033732
     22          1           0       -1.362564   -2.573894    1.461776
     23          1           0       -0.109271   -3.698902    0.853326
     24          1           0       -0.710278   -0.210439    2.110160
     25          1           0        0.989461    0.331590    1.932356
     26          1           0       -2.143066   -0.675009    0.003792
     27          1           0       -1.447305   -0.428499   -1.630156
     28          1           0        2.001053    0.684779   -0.425804
     29          1           0        1.006821    0.358775   -1.881775
     30          1           0        0.060210    3.698902    0.646258
     31          1           0        0.581171    2.414023    1.748660
     32          1           0        1.394003    2.638568    0.151643
     33          1           0       -1.216705    3.295432   -1.346070
     34          1           0       -1.627040    1.669339   -1.925128
     35          1           0        0.074558    2.270513   -1.993804
     36          1           0       -2.753979    1.339050    0.333021
     37          1           0       -1.822538    1.584064    1.860782
     38          1           0       -2.217330    2.958247    0.810274
 ---------------------------------------------------------------------
                    Distance matrix (angstroms):
                    1          2          3          4          5
     1  C    0.000000
     2  C    1.536417   0.000000
     3  C    2.499896   1.536202   0.000000
     4  C    2.939407   2.512071   1.536411   0.000000
     5  C    2.499866   2.939395   2.499837   1.536197   0.000000
     6  C    1.536205   2.512039   2.939356   2.511994   1.536414
     7  C    1.540222   2.513831   2.935634   3.550476   2.937366
     8  C    2.935462   3.550299   2.937304   2.515894   1.540248
     9  C    2.548936   2.992460   2.548956   2.992643   2.549005
    10  C    2.937386   2.515780   1.540230   2.513891   2.935540
    11  N    3.928330   4.415125   3.928291   4.415276   3.928347
    12  C    4.454113   4.754606   4.489129   5.375743   5.108734
    13  C    5.108766   5.346204   4.454105   4.754839   4.489244
    14  C    4.489227   5.375669   5.108738   5.346382   4.454224
    15  H    1.118985   2.176998   3.473639   3.950433   3.473708
    16  H    2.189434   1.115205   2.188681   3.488034   3.957585
    17  H    2.189014   1.115237   2.188847   2.767659   3.343164
    18  H    3.473755   2.176917   1.118990   2.176974   3.473585
    19  H    3.343099   2.767666   2.189012   1.115216   2.188872
    20  H    3.957666   3.488384   2.189479   1.115225   2.188679
    21  H    3.473622   3.950496   3.473711   2.176920   1.118984
    22  H    2.188733   3.488049   3.957646   3.488310   2.189462
    23  H    2.188851   2.767581   3.342994   2.767497   2.189021
    24  H    2.156208   3.465456   3.950659   4.307308   3.340854
    25  H    2.150496   2.730668   3.325889   4.297064   3.947002
    26  H    3.325585   4.296803   3.946900   3.463552   2.150573
    27  H    3.950539   4.307201   3.340840   2.746214   2.156253
    28  H    3.341050   2.746124   2.156242   3.465520   3.950661
    29  H    3.946942   3.463417   2.150468   2.730604   3.325588
    30  H    5.526659   5.867620   5.542845   6.367908   6.052556
    31  H    4.162664   4.626724   4.727273   5.688506   5.312792
    32  H    4.621191   4.553280   4.166814   5.253354   5.308971
    33  H    6.052557   6.353483   5.526566   5.867829   5.543000
    34  H    5.309207   5.622353   4.621441   4.553783   4.167150
    35  H    5.312745   5.226113   4.162539   4.626777   4.727200
    36  H    4.727597   5.688681   5.312997   5.226591   4.163010
    37  H    4.166846   5.253257   5.308966   5.622201   4.621195
    38  H    5.542870   6.367759   6.052547   6.353789   5.526812
                    6          7          8          9         10
     6  C    0.000000
     7  C    2.515868   0.000000
     8  C    2.513849   2.500218   0.000000
     9  C    2.992618   1.548647   1.548619   0.000000
    10  C    3.550416   2.500425   2.500261   1.548642   0.000000
    11  N    4.415313   2.559361   2.559286   1.552595   2.559274
    12  C    5.346340   3.025504   3.926670   2.560334   3.078472
    13  C    5.375833   3.926804   3.078590   2.560437   3.025418
    14  C    4.754931   3.078535   3.025482   2.560392   3.926705
    15  H    2.176883   2.186119   3.947885   3.516859   3.950244
    16  H    3.488324   2.771848   4.308396   3.385806   2.774529
    17  H    2.767633   3.490711   4.309988   4.013256   3.492131
    18  H    3.950400   3.948064   3.950161   3.516867   2.186114
    19  H    2.767537   4.310062   3.492230   4.013367   3.490749
    20  H    3.487987   4.308709   2.774780   3.386168   2.772035
    21  H    2.177003   3.950172   2.186110   3.516881   3.947941
    22  H    1.115219   2.774790   2.772033   3.386212   4.308706
    23  H    1.115224   3.492190   3.490734   4.013334   4.309972
    24  H    2.746130   1.112751   2.781708   2.215893   3.492937
    25  H    3.463500   1.113042   3.491783   2.214366   2.773083
    26  H    2.730692   2.772658   1.113028   2.214249   3.491758
    27  H    3.465489   3.492743   1.112760   2.215792   2.781725
    28  H    4.307403   2.782096   3.492841   2.215925   1.112773
    29  H    4.296846   3.491920   2.772750   2.214327   1.113038
    30  H    6.353714   4.053345   4.745958   3.532886   4.076606
    31  H    5.226340   2.730306   4.284187   2.875296   3.533964
    32  H    5.622208   3.409002   4.296958   2.851117   2.764427
    33  H    6.368030   4.746047   4.076784   3.532947   4.053171
    34  H    5.253644   4.297217   2.764753   2.851396   3.409119
    35  H    5.688446   4.284330   3.533918   2.875350   2.730163
    36  H    4.627301   3.534205   2.730538   2.875570   4.284402
    37  H    4.553509   2.764413   3.408828   2.851117   4.297004
    38  H    5.867925   4.076590   4.053416   3.532936   4.745980
                   11         12         13         14         15
    11  N    0.000000
    12  C    1.526992   0.000000
    13  C    1.527008   2.443787   0.000000
    14  C    1.526987   2.443768   2.443813   0.000000
    15  H    4.740020   5.070731   6.045293   5.124067   0.000000
    16  H    4.574770   4.544095   5.566967   5.616037   2.512905
    17  H    5.486978   5.869685   6.366269   6.391465   2.511670
    18  H    4.739937   5.123920   5.070656   6.045225   4.325955
    19  H    5.487076   6.391459   5.869897   6.366400   4.166157
    20  H    4.575109   5.616324   4.544530   5.567323   5.012371
    21  H    4.739950   6.045195   5.123996   5.070742   4.325920
    22  H    4.575263   5.567426   5.616510   4.544756   2.511981
    23  H    5.487099   6.366319   6.391539   5.870000   2.511593
    24  H    2.830534   3.386661   4.267990   2.750525   2.469859
    25  H    2.835124   2.693888   4.243026   3.479216   2.467082
    26  H    2.834969   4.242787   3.479296   2.693784   4.150087
    27  H    2.830266   4.267715   2.750363   3.386402   5.006197
    28  H    2.830423   2.750410   3.386426   4.267900   4.167740
    29  H    2.835019   3.479273   2.693766   4.242859   5.004172
    30  H    2.191157   1.113716   2.653917   2.677438   6.109524
    31  H    2.205283   1.110894   3.443165   2.715492   4.552792
    32  H    2.206331   1.110590   2.744388   3.445821   5.282567
    33  H    2.191166   2.677365   1.113684   2.654058   6.918379
    34  H    2.206392   3.445872   1.110619   2.744374   6.302984
    35  H    2.205318   2.715637   1.110884   3.443197   6.291730
    36  H    2.205342   3.443181   2.715516   1.110914   5.423851
    37  H    2.206383   2.744510   3.445918   1.110633   4.582268
    38  H    2.191182   2.653824   2.677638   1.113703   6.134911
                   16         17         18         19         20
    16  H    0.000000
    17  H    1.790754   0.000000
    18  H    2.512021   2.511597   0.000000
    19  H    3.783194   2.554159   2.511693   0.000000
    20  H    4.348564   3.783483   2.512877   1.790714   0.000000
    21  H    5.012362   4.166348   4.325922   2.511706   2.511944
    22  H    4.348557   3.783144   5.012359   3.783329   4.348522
    23  H    3.783412   2.554064   4.166069   2.553921   3.783020
    24  H    3.764147   4.318926   5.006330   5.030489   5.049156
    25  H    2.517864   3.741813   4.150421   5.019320   5.039424
    26  H    5.038980   5.019191   5.004123   4.314762   3.767701
    27  H    5.048903   5.030506   4.167511   3.756459   2.536146
    28  H    2.535896   3.756316   2.469803   4.318967   3.764276
    29  H    3.767479   4.314622   2.467111   3.741781   2.517928
    30  H    5.634926   6.982785   6.134864   7.415044   6.507748
    31  H    4.302744   5.713087   5.423491   6.616277   6.121614
    32  H    4.201770   5.644219   4.582177   6.231977   5.435314
    33  H    6.483013   7.402495   6.109329   6.982973   5.635345
    34  H    6.040103   6.551283   5.282763   5.644729   4.202462
    35  H    5.360448   6.216427   4.552595   5.713124   4.302982
    36  H    6.121572   6.616560   6.291916   6.216909   5.361007
    37  H    5.435036   6.231945   6.302745   6.551049   6.040137
    38  H    6.507344   7.414973   6.918324   7.402742   6.483586
                   21         22         23         24         25
    21  H    0.000000
    22  H    2.512815   0.000000
    23  H    2.511793   1.790698   0.000000
    24  H    4.167447   2.536099   3.756357   0.000000
    25  H    5.004175   3.767666   4.314671   1.792909   0.000000
    26  H    2.467185   2.518068   3.741919   2.589497   3.813834
    27  H    2.469865   3.764299   4.318976   3.818471   4.382585
    28  H    5.006292   5.049339   5.030537   3.818880   2.590170
    29  H    4.150052   5.039233   5.019082   4.382691   3.814267
    30  H    6.918303   6.483620   7.402642   4.244951   3.722411
    31  H    6.291702   5.360944   6.216606   2.947257   2.130017
    32  H    6.302715   6.040271   6.551009   4.047299   2.942234
    33  H    6.135017   6.508015   7.415151   4.949053   4.939596
    34  H    4.582451   5.435632   6.232290   4.545060   4.849313
    35  H    5.423365   6.121653   6.616182   4.859384   4.473388
    36  H    4.553012   4.303633   5.713682   3.120233   4.193589
    37  H    5.282464   4.202308   5.644465   2.125924   3.079148
    38  H    6.109608   5.635571   6.983079   3.741855   4.294404
                   26         27         28         29         30
    26  H    0.000000
    27  H    1.792941   0.000000
    28  H    4.382613   3.818511   0.000000
    29  H    3.813904   2.589565   1.792938   0.000000
    30  H    4.939462   4.948747   3.741808   4.294586   0.000000
    31  H    4.473047   4.859120   3.120039   4.193481   1.771328
    32  H    4.848970   4.544748   2.125852   3.079311   1.774248
    33  H    4.294726   3.741864   4.244569   3.722231   2.400556
    34  H    3.079445   2.126085   4.047269   2.942224   3.684829
    35  H    4.193369   3.119771   2.946958   2.129884   3.001738
    36  H    2.130268   2.947150   4.859446   4.473240   3.686011
    37  H    2.941864   4.046957   4.545001   4.849055   3.080965
    38  H    3.722429   4.244842   4.948869   4.939588   2.400554
                   31         32         33         34         35
    31  H    0.000000
    32  H    1.805984   0.000000
    33  H    3.686000   3.080651   0.000000
    34  H    4.350571   3.791976   1.774221   0.000000
    35  H    3.779324   2.545455   1.771265   1.805980   0.000000
    36  H    3.779263   4.350563   3.001664   2.545254   3.779201
    37  H    2.545431   3.792001   3.685066   3.791913   4.350634
    38  H    3.001392   3.684795   2.400992   3.080933   3.686269
                   36         37         38
    36  H    0.000000
    37  H    1.806009   0.000000
    38  H    1.771316   1.774206   0.000000
 Stoichiometry    C13H24N(1+)
 Framework group  C1[X(C13H24N)]
 Deg. of freedom   108
 Full point group                 C1      NOp   1
 Largest Abelian subgroup         C1      NOp   1
 Largest concise Abelian subgroup C1      NOp   1
                         Standard orientation:                         
 ---------------------------------------------------------------------
 Center     Atomic      Atomic             Coordinates (Angstroms)
 Number     Number       Type             X           Y           Z
 ---------------------------------------------------------------------
      1          6           0        1.626997   -1.284319    0.658519
      2          6           0        2.143511   -0.072061    1.448595
      3          6           0        1.626956    1.212477    0.782975
      4          6           0        2.143709    1.290526   -0.661821
      5          6           0        1.627047    0.071887   -1.441490
      6          6           0        2.143772   -1.218364   -0.786652
      7          6           0        0.086776   -1.283676    0.660446
      8          6           0        0.086800    0.069683   -1.441816
      9          6           0       -0.473979   -0.000051    0.000017
     10          6           0        0.086728    1.213826    0.781299
     11          7           0       -2.026575    0.000008   -0.000034
     12          6           0       -2.610504   -0.132791    1.404635
     13          6           0       -2.610541    1.282906   -0.587323
     14          6           0       -2.610570   -1.150058   -0.817340
     15          1           0        2.002057   -2.222380    1.139663
     16          1           0        1.797706   -0.124324    2.507542
     17          1           0        3.258481   -0.073243    1.472975
     18          1           0        2.001941    2.098222    1.354796
     19          1           0        3.258661    1.312116   -0.672837
     20          1           0        1.798123    2.233788   -1.146130
     21          1           0        2.002001    0.124228   -2.494483
     22          1           0        1.798327   -2.109398   -1.361492
     23          1           0        3.258736   -1.238653   -0.799703
     24          1           0       -0.251476   -2.200965    0.129052
     25          1           0       -0.240942   -1.374806    1.720238
     26          1           0       -0.240914   -0.802679   -2.050438
     27          1           0       -0.251631    0.988449   -1.970557
     28          1           0       -0.251652    1.212508    1.841375
     29          1           0       -0.240899    2.177101    0.330060
     30          1           0       -3.723641   -0.104853    1.382045
     31          1           0       -2.346627   -1.099166    1.884815
     32          1           0       -2.300486    0.696118    2.075611
     33          1           0       -3.723651    1.249489   -0.599982
     34          1           0       -2.300762    1.449472   -1.640778
     35          1           0       -2.346493    2.181977    0.009346
     36          1           0       -2.346926   -1.082692   -1.894411
     37          1           0       -2.300436   -2.145652   -0.435089
     38          1           0       -3.723687   -1.144621   -0.781642
 ---------------------------------------------------------------------
 Rotational constants (GHZ):      1.2449529      0.5625960      0.5625888
 Standard basis: 6-311++G(d,p) (5D, 7F)
 There are   490 symmetry adapted cartesian basis functions of A   symmetry.
 There are   476 symmetry adapted basis functions of A   symmetry.
   476 basis functions,   720 primitive gaussians,   490 cartesian basis functions
    54 alpha electrons       54 beta electrons
       nuclear repulsion energy      1060.1614543255 Hartrees.
 NAtoms=   38 NActive=   38 NUniq=   38 SFac= 1.00D+00 NAtFMM=   60 NAOKFM=F Big=F
 Integral buffers will be    131072 words long.
 Raffenetti 2 integral format.
 Two-electron integral symmetry is turned on.
 One-electron integrals computed using PRISM.
 NBasis=   476 RedAO= T EigKep=  2.35D-06  NBF=   476
 NBsUse=   476 1.00D-06 EigRej= -1.00D+00 NBFU=   476
 ExpMin= 3.60D-02 ExpMax= 6.29D+03 ExpMxC= 9.49D+02 IAcc=3 IRadAn=         5 AccDes= 0.00D+00
 Harris functional with IExCor=  402 and IRadAn=       5 diagonalized for initial guess.
 HarFok:  IExCor=  402 AccDes= 0.00D+00 IRadAn=         5 IDoV= 1 UseB2=F ITyADJ=14
 ICtDFT=  3500011 ScaDFX=  1.000000  1.000000  1.000000  1.000000
 FoFCou: FMM=F IPFlag=           0 FMFlag=      100000 FMFlg1=           0
         NFxFlg=           0 DoJE=T BraDBF=F KetDBF=T FulRan=T
         wScrn=  0.000000 ICntrl=     500 IOpCl=  0 I1Cent=   200000004 NGrid=           0
         NMat0=    1 NMatS0=      1 NMatT0=    0 NMatD0=    1 NMtDS0=    0 NMtDT0=    0
 Petite list used in FoFCou.
 Keep R1 ints in memory in canonical form, NReq=6504070587.
 Requested convergence on RMS density matrix=1.00D-08 within 128 cycles.
 Requested convergence on MAX density matrix=1.00D-06.
 Requested convergence on             energy=1.00D-06.
 No special actions if energy rises.
 DSYEVD-2 returned Info=      142503 IAlg= 4 N=   476 NDim=   476 NE2=     4505899 trying  DSYEV.
 SCF Done:  E(RB3LYP) =  -564.504240636     A.U. after   15 cycles
            NFock= 15  Conv=0.37D-08     -V/T= 2.0063

 **********************************************************************

            Population analysis using the SCF density.

 **********************************************************************

 Orbital symmetries:
       Occupied  (A) (A) (A) (A) (A) (A) (A) (A) (A) (A) (A) (A)
                 (A) (A) (A) (A) (A) (A) (A) (A) (A) (A) (A) (A)
                 (A) (A) (A) (A) (A) (A) (A) (A) (A) (A) (A) (A)
                 (A) (A) (A) (A) (A) (A) (A) (A) (A) (A) (A) (A)
                 (A) (A) (A) (A) (A) (A)
       Virtual   (A) (A) (A) (A) (A) (A) (A) (A) (A) (A) (A) (A)
                 (A) (A) (A) (A) (A) (A) (A) (A) (A) (A) (A) (A)
                 (A) (A) (A) (A) (A) (A) (A) (A) (A) (A) (A) (A)
                 (A) (A) (A) (A) (A) (A) (A) (A) (A) (A) (A) (A)
                 (A) (A) (A) (A) (A) (A) (A) (A) (A) (A) (A) (A)
                 (A) (A) (A) (A) (A) (A) (A) (A) (A) (A) (A) (A)
                 (A) (A) (A) (A) (A) (A) (A) (A) (A) (A) (A) (A)
                 (A) (A) (A) (A) (A) (A) (A) (A) (A) (A) (A) (A)
                 (A) (A) (A) (A) (A) (A) (A) (A) (A) (A) (A) (A)
                 (A) (A) (A) (A) (A) (A) (A) (A) (A) (A) (A) (A)
                 (A) (A) (A) (A) (A) (A) (A) (A) (A) (A) (A) (A)
                 (A) (A) (A) (A) (A) (A) (A) (A) (A) (A) (A) (A)
                 (A) (A) (A) (A) (A) (A) (A) (A) (A) (A) (A) (A)
                 (A) (A) (A) (A) (A) (A) (A) (A) (A) (A) (A) (A)
                 (A) (A) (A) (A) (A) (A) (A) (A) (A) (A) (A) (A)
                 (A) (A) (A) (A) (A) (A) (A) (A) (A) (A) (A) (A)
                 (A) (A) (A) (A) (A) (A) (A) (A) (A) (A) (A) (A)
                 (A) (A) (A) (A) (A) (A) (A) (A) (A) (A) (A) (A)
                 (A) (A) (A) (A) (A) (A) (A) (A) (A) (A) (A) (A)
                 (A) (A) (A) (A) (A) (A) (A) (A) (A) (A) (A) (A)
                 (A) (A) (A) (A) (A) (A) (A) (A) (A) (A) (A) (A)
                 (A) (A) (A) (A) (A) (A) (A) (A) (A) (A) (A) (A)
                 (A) (A) (A) (A) (A) (A) (A) (A) (A) (A) (A) (A)
                 (A) (A) (A) (A) (A) (A) (A) (A) (A) (A) (A) (A)
                 (A) (A) (A) (A) (A) (A) (A) (A) (A) (A) (A) (A)
                 (A) (A) (A) (A) (A) (A) (A) (A) (A) (A) (A) (A)
                 (A) (A) (A) (A) (A) (A) (A) (A) (A) (A) (A) (A)
                 (A) (A) (A) (A) (A) (A) (A) (A) (A) (A) (A) (A)
                 (A) (A) (A) (A) (A) (A) (A) (A) (A) (A) (A) (A)
                 (A) (A) (A) (A) (A) (A) (A) (A) (A) (A) (A) (A)
                 (A) (A) (A) (A) (A) (A) (A) (A) (A) (A) (A) (A)
                 (A) (A) (A) (A) (A) (A) (A) (A) (A) (A) (A) (A)
                 (A) (A) (A) (A) (A) (A) (A) (A) (A) (A) (A) (A)
                 (A) (A) (A) (A) (A) (A) (A) (A) (A) (A) (A) (A)
                 (A) (A) (A) (A) (A) (A) (A) (A) (A) (A) (A) (A)
                 (A) (A)
 The electronic state is 1-A.
 Alpha  occ. eigenvalues --  -14.60362 -10.38632 -10.37928 -10.37928 -10.37927
 Alpha  occ. eigenvalues --  -10.31444 -10.31443 -10.31442 -10.29898 -10.29898
 Alpha  occ. eigenvalues --  -10.29896 -10.28221 -10.28220 -10.28219  -1.15943
 Alpha  occ. eigenvalues --   -1.00849  -0.91699  -0.90576  -0.90575  -0.88705
 Alpha  occ. eigenvalues --   -0.88705  -0.81935  -0.79891  -0.79891  -0.72831
 Alpha  occ. eigenvalues --   -0.71297  -0.71296  -0.67883  -0.65976  -0.65975
 Alpha  occ. eigenvalues --   -0.62810  -0.60312  -0.60311  -0.58441  -0.57003
 Alpha  occ. eigenvalues --   -0.57002  -0.56488  -0.56090  -0.55146  -0.55146
 Alpha  occ. eigenvalues --   -0.53691  -0.53574  -0.53574  -0.53456  -0.51870
 Alpha  occ. eigenvalues --   -0.51870  -0.46725  -0.46724  -0.45810  -0.45519
 Alpha  occ. eigenvalues --   -0.45518  -0.43793  -0.40980  -0.40980
 Alpha virt. eigenvalues --   -0.14026  -0.11463  -0.10999  -0.10999  -0.10009
 Alpha virt. eigenvalues --   -0.09607  -0.09606  -0.09358  -0.08028  -0.08027
 Alpha virt. eigenvalues --   -0.07210  -0.06218  -0.06217  -0.05944  -0.05157
 Alpha virt. eigenvalues --   -0.05157  -0.04775  -0.03750  -0.03750  -0.03616
 Alpha virt. eigenvalues --   -0.02937  -0.02936  -0.02047  -0.01431  -0.01430
 Alpha virt. eigenvalues --   -0.00710  -0.00549  -0.00547  -0.00393  -0.00204
 Alpha virt. eigenvalues --    0.00215   0.00216   0.00518   0.00727   0.00728
 Alpha virt. eigenvalues --    0.01876   0.01981   0.01983   0.02337   0.02338
 Alpha virt. eigenvalues --    0.02578   0.03157   0.03158   0.03710   0.04075
 Alpha virt. eigenvalues --    0.04388   0.04390   0.04695   0.04697   0.05356
 Alpha virt. eigenvalues --    0.05466   0.05467   0.05794   0.06764   0.06765
 Alpha virt. eigenvalues --    0.06929   0.07441   0.07442   0.07928   0.08007
 Alpha virt. eigenvalues --    0.08008   0.08277   0.08847   0.08848   0.09078
 Alpha virt. eigenvalues --    0.09079   0.09707   0.09857   0.09858   0.09933
 Alpha virt. eigenvalues --    0.10092   0.10698   0.10698   0.11704   0.11705
 Alpha virt. eigenvalues --    0.11819   0.12361   0.12363   0.13285   0.13611
 Alpha virt. eigenvalues --    0.13612   0.13986   0.14313   0.14315   0.15098
 Alpha virt. eigenvalues --    0.15947   0.16234   0.16239   0.17076   0.17077
 Alpha virt. eigenvalues --    0.17505   0.17506   0.17725   0.17965   0.18708
 Alpha virt. eigenvalues --    0.18709   0.19464   0.20549   0.20699   0.20700
 Alpha virt. eigenvalues --    0.22702   0.22932   0.22934   0.23017   0.23909
 Alpha virt. eigenvalues --    0.23911   0.25364   0.25365   0.25389   0.26619
 Alpha virt. eigenvalues --    0.26620   0.26853   0.27497   0.27498   0.27899
 Alpha virt. eigenvalues --    0.30205   0.31100   0.31102   0.32708   0.32709
 Alpha virt. eigenvalues --    0.35049   0.37668   0.37669   0.38619   0.39591
 Alpha virt. eigenvalues --    0.39594   0.40665   0.42265   0.42596   0.42597
 Alpha virt. eigenvalues --    0.44239   0.44638   0.45612   0.45614   0.47406
 Alpha virt. eigenvalues --    0.48555   0.48556   0.48996   0.49553   0.50951
 Alpha virt. eigenvalues --    0.50952   0.51774   0.51776   0.53415   0.53417
 Alpha virt. eigenvalues --    0.53482   0.53846   0.56614   0.57129   0.57131
 Alpha virt. eigenvalues --    0.57391   0.57393   0.57463   0.57958   0.58588
 Alpha virt. eigenvalues --    0.58589   0.59826   0.60281   0.60758   0.60760
 Alpha virt. eigenvalues --    0.62541   0.62543   0.62582   0.63409   0.63410
 Alpha virt. eigenvalues --    0.64990   0.64991   0.65597   0.65686   0.65689
 Alpha virt. eigenvalues --    0.67231   0.67233   0.68147   0.69651   0.69653
 Alpha virt. eigenvalues --    0.69945   0.72115   0.74077   0.74080   0.74571
 Alpha virt. eigenvalues --    0.77027   0.79464   0.79465   0.81006   0.82834
 Alpha virt. eigenvalues --    0.82836   0.85792   0.86473   0.86477   0.88024
 Alpha virt. eigenvalues --    0.91901   0.91909   0.94821   0.94987   0.98694
 Alpha virt. eigenvalues --    0.98880   0.98881   1.00970   1.00972   1.02483
 Alpha virt. eigenvalues --    1.06979   1.07027   1.07030   1.10261   1.10263
 Alpha virt. eigenvalues --    1.16094   1.18495   1.18499   1.27030   1.27031
 Alpha virt. eigenvalues --    1.28857   1.30338   1.30341   1.33542   1.33808
 Alpha virt. eigenvalues --    1.33813   1.34990   1.34991   1.37224   1.39101
 Alpha virt. eigenvalues --    1.39103   1.39398   1.40196   1.40473   1.40478
 Alpha virt. eigenvalues --    1.40950   1.43736   1.43737   1.44564   1.46895
 Alpha virt. eigenvalues --    1.48502   1.48504   1.48588   1.48589   1.49062
 Alpha virt. eigenvalues --    1.49337   1.50210   1.50210   1.50577   1.50578
 Alpha virt. eigenvalues --    1.54310   1.54311   1.54443   1.55359   1.55360
 Alpha virt. eigenvalues --    1.57421   1.59508   1.59512   1.59662   1.62571
 Alpha virt. eigenvalues --    1.62577   1.63460   1.63701   1.63703   1.64001
 Alpha virt. eigenvalues --    1.65087   1.65092   1.67113   1.69023   1.69615
 Alpha virt. eigenvalues --    1.70550   1.70553   1.71553   1.73023   1.73356
 Alpha virt. eigenvalues --    1.73357   1.74144   1.74147   1.76918   1.77825
 Alpha virt. eigenvalues --    1.77831   1.80500   1.80501   1.81941   1.83965
 Alpha virt. eigenvalues --    1.83970   1.84519   1.89066   1.89066   1.89418
 Alpha virt. eigenvalues --    1.89682   1.90602   1.90604   1.94707   1.94709
 Alpha virt. eigenvalues --    1.96584   1.98265   1.98269   2.03480   2.03482
 Alpha virt. eigenvalues --    2.05492   2.05618   2.05619   2.07124   2.07538
 Alpha virt. eigenvalues --    2.14344   2.15292   2.15294   2.16945   2.16947
 Alpha virt. eigenvalues --    2.18112   2.18562   2.18564   2.21506   2.23067
 Alpha virt. eigenvalues --    2.23070   2.25138   2.26014   2.26016   2.27489
 Alpha virt. eigenvalues --    2.27491   2.27934   2.29676   2.30207   2.30209
 Alpha virt. eigenvalues --    2.31273   2.32616   2.34992   2.34993   2.38331
 Alpha virt. eigenvalues --    2.39596   2.39599   2.39787   2.41222   2.41223
 Alpha virt. eigenvalues --    2.42344   2.42345   2.47074   2.48284   2.50597
 Alpha virt. eigenvalues --    2.50600   2.51224   2.51225   2.55830   2.55833
 Alpha virt. eigenvalues --    2.56799   2.61583   2.61584   2.62876   2.62878
 Alpha virt. eigenvalues --    2.64788   2.64788   2.65126   2.66746   2.66750
 Alpha virt. eigenvalues --    2.68546   2.71335   2.75139   2.77183   2.77185
 Alpha virt. eigenvalues --    2.78215   2.79281   2.79283   2.80781   2.86442
 Alpha virt. eigenvalues --    2.87059   2.87067   2.89141   2.89145   2.91714
 Alpha virt. eigenvalues --    2.96897   2.96897   3.00837   3.02634   3.04707
 Alpha virt. eigenvalues --    3.04710   3.05221   3.07509   3.07512   3.11027
 Alpha virt. eigenvalues --    3.11031   3.15103   3.20820   3.20821   3.31458
 Alpha virt. eigenvalues --    3.35308   3.35311   3.39071   3.45709   3.47999
 Alpha virt. eigenvalues --    3.48006   3.56292   3.56296   3.59058   3.59757
 Alpha virt. eigenvalues --    3.61754   3.61757   3.64377   3.64378   3.66398
 Alpha virt. eigenvalues --    3.69800   3.69802   3.70999   3.72322   3.90376
 Alpha virt. eigenvalues --    3.90379   3.99825   3.99832   4.01259   4.15799
 Alpha virt. eigenvalues --    4.17195   4.17205   4.19496   4.19500   4.20465
 Alpha virt. eigenvalues --    4.48699   4.48701   4.57231  23.59292  23.74540
 Alpha virt. eigenvalues --   23.74543  23.74896  23.77463  23.78443  23.78444
 Alpha virt. eigenvalues --   23.81501  23.85062  23.86742  23.86744  23.89011
 Alpha virt. eigenvalues --   23.89013  35.30613
          Condensed to atoms (all electrons):
               1          2          3          4          5          6
     1  C    6.722379  -0.219590  -0.364032   0.121833  -0.364518  -0.236521
     2  C   -0.219590   6.030567  -0.236191   0.056346   0.122400   0.056701
     3  C   -0.364032  -0.236191   6.724346  -0.219896  -0.362913   0.121931
     4  C    0.121833   0.056346  -0.219896   6.031765  -0.237913   0.056925
     5  C   -0.364518   0.122400  -0.362913  -0.237913   6.726022  -0.220055
     6  C   -0.236521   0.056701   0.121931   0.056925  -0.220055   6.031847
     7  C   -0.758117   0.182252   0.193515  -0.242415   0.220366   0.180135
     8  C    0.190997  -0.240816   0.222430   0.178242  -0.756642   0.182396
     9  C    0.478075  -0.123325   0.475760  -0.121225   0.478466  -0.123805
    10  C    0.221304   0.179308  -0.757968   0.181818   0.191626  -0.241621
    11  N   -0.167875   0.066070  -0.166970   0.066202  -0.167600   0.066436
    12  C   -0.058586   0.040100  -0.063385  -0.001060   0.000452   0.000318
    13  C    0.000351   0.000224  -0.058546   0.040245  -0.063420  -0.001015
    14  C   -0.063508  -0.001085   0.000553   0.000230  -0.058499   0.040209
    15  H    0.352400  -0.038902  -0.009538   0.021411  -0.007969  -0.042534
    16  H   -0.105042   0.482311  -0.095025  -0.003086   0.041325   0.000046
    17  H   -0.062304   0.453818  -0.060352   0.001807  -0.011966   0.004334
    18  H   -0.007908  -0.042479   0.352070  -0.038819  -0.009467   0.021360
    19  H   -0.011970   0.004371  -0.062407   0.454060  -0.060528   0.001846
    20  H    0.041445   0.000051  -0.105362   0.482425  -0.094961  -0.003122
    21  H   -0.009559   0.021391  -0.007784  -0.042616   0.352426  -0.038992
    22  H   -0.094892  -0.003092   0.041227   0.000177  -0.105450   0.482455
    23  H   -0.060334   0.001883  -0.012140   0.004491  -0.062493   0.453894
    24  H    0.010905   0.000666  -0.014415  -0.001481   0.033235  -0.021182
    25  H    0.020421  -0.027542   0.030648  -0.000874  -0.013808  -0.000403
    26  H    0.030748  -0.000872  -0.013997  -0.000298   0.020046  -0.027490
    27  H   -0.014277  -0.001463   0.033253  -0.021162   0.010629   0.000627
    28  H    0.033386  -0.021180   0.011003   0.000573  -0.014392  -0.001474
    29  H   -0.013929  -0.000333   0.020185  -0.027551   0.030696  -0.000862
    30  H    0.003210  -0.002889   0.002802   0.001543  -0.002220   0.001198
    31  H   -0.012020   0.003227  -0.000770  -0.003909   0.009802  -0.001810
    32  H   -0.007043   0.005612  -0.011081  -0.000207   0.008292  -0.001710
    33  H   -0.002231   0.001203   0.003199  -0.002878   0.002809   0.001541
    34  H    0.008298  -0.001725  -0.006986   0.005604  -0.011053  -0.000209
    35  H    0.009807  -0.001792  -0.012063   0.003211  -0.000784  -0.003909
    36  H   -0.000753  -0.003886   0.009777  -0.001809  -0.012030   0.003212
    37  H   -0.011117  -0.000211   0.008270  -0.001696  -0.007021   0.005630
    38  H    0.002804   0.001538  -0.002210   0.001192   0.003201  -0.002882
               7          8          9         10         11         12
     1  C   -0.758117   0.190997   0.478075   0.221304  -0.167875  -0.058586
     2  C    0.182252  -0.240816  -0.123325   0.179308   0.066070   0.040100
     3  C    0.193515   0.222430   0.475760  -0.757968  -0.166970  -0.063385
     4  C   -0.242415   0.178242  -0.121225   0.181818   0.066202  -0.001060
     5  C    0.220366  -0.756642   0.478466   0.191626  -0.167600   0.000452
     6  C    0.180135   0.182396  -0.123805  -0.241621   0.066436   0.000318
     7  C    8.994748  -0.683795  -2.351052  -0.686724   0.420541   0.272034
     8  C   -0.683795   8.993597  -2.357403  -0.684899   0.423114  -0.043920
     9  C   -2.351052  -2.357403  19.281708  -2.347118  -3.317110  -1.203462
    10  C   -0.686724  -0.684899  -2.347118   8.990967   0.420347   0.197965
    11  N    0.420541   0.423114  -3.317110   0.420347   7.566003   0.589599
    12  C    0.272034  -0.043920  -1.203462   0.197965   0.589599   5.756506
    13  C   -0.044029   0.198580  -1.205729   0.272833   0.590298  -0.160304
    14  C    0.198574   0.273102  -1.206739  -0.043635   0.590492  -0.160422
    15  H    0.091828  -0.007143  -0.047494  -0.005207   0.003076   0.004240
    16  H    0.009526  -0.024191   0.023360  -0.000919  -0.000760  -0.005522
    17  H   -0.014793   0.023683   0.013239  -0.018887   0.000248  -0.001237
    18  H   -0.006942  -0.005046  -0.048013   0.092317   0.003157   0.002912
    19  H    0.023691  -0.018929   0.013381  -0.014840   0.000238   0.000346
    20  H   -0.024264  -0.001165   0.023452   0.009655  -0.000781   0.000890
    21  H   -0.005113   0.092259  -0.048173  -0.006896   0.003138  -0.001889
    22  H   -0.000947   0.009751   0.023282  -0.024293  -0.000714   0.001429
    23  H   -0.018985  -0.014870   0.013455   0.023724   0.000255  -0.000034
    24  H    0.310317  -0.099941   0.049134   0.097265  -0.012412   0.006583
    25  H    0.279384   0.092997   0.111841  -0.112713  -0.039899  -0.028522
    26  H   -0.112887   0.279084   0.112579   0.093001  -0.040022  -0.000780
    27  H    0.097358   0.311048   0.048513  -0.100087  -0.012354   0.002748
    28  H   -0.099762   0.097234   0.048437   0.310616  -0.012375  -0.034484
    29  H    0.093057  -0.112960   0.113076   0.278817  -0.040125   0.012765
    30  H   -0.029788   0.009222   0.136969  -0.031613  -0.052332   0.376882
    31  H    0.091888  -0.031115  -0.092216   0.022408  -0.017256   0.384449
    32  H    0.013515  -0.029739  -0.089018   0.077455   0.000836   0.380743
    33  H    0.009231  -0.031599   0.136906  -0.029790  -0.052307  -0.025906
    34  H   -0.029644   0.077114  -0.088449   0.013428   0.000570   0.013581
    35  H   -0.031144   0.022513  -0.092405   0.091865  -0.017111  -0.007422
    36  H    0.022566   0.092007  -0.092764  -0.031144  -0.017037   0.012814
    37  H    0.077385   0.013426  -0.089062  -0.029659   0.000920  -0.003532
    38  H   -0.031702  -0.029836   0.137386   0.009237  -0.052530  -0.027428
              13         14         15         16         17         18
     1  C    0.000351  -0.063508   0.352400  -0.105042  -0.062304  -0.007908
     2  C    0.000224  -0.001085  -0.038902   0.482311   0.453818  -0.042479
     3  C   -0.058546   0.000553  -0.009538  -0.095025  -0.060352   0.352070
     4  C    0.040245   0.000230   0.021411  -0.003086   0.001807  -0.038819
     5  C   -0.063420  -0.058499  -0.007969   0.041325  -0.011966  -0.009467
     6  C   -0.001015   0.040209  -0.042534   0.000046   0.004334   0.021360
     7  C   -0.044029   0.198574   0.091828   0.009526  -0.014793  -0.006942
     8  C    0.198580   0.273102  -0.007143  -0.024191   0.023683  -0.005046
     9  C   -1.205729  -1.206739  -0.047494   0.023360   0.013239  -0.048013
    10  C    0.272833  -0.043635  -0.005207  -0.000919  -0.018887   0.092317
    11  N    0.590298   0.590492   0.003076  -0.000760   0.000248   0.003157
    12  C   -0.160304  -0.160422   0.004240  -0.005522  -0.001237   0.002912
    13  C    5.757064  -0.160096  -0.001895   0.001427  -0.000039   0.004261
    14  C   -0.160096   5.757080   0.002890   0.000891   0.000344  -0.001881
    15  H   -0.001895   0.002890   0.480008  -0.010720  -0.008625  -0.001545
    16  H    0.001427   0.000891  -0.010720   0.538764   0.004552  -0.010053
    17  H   -0.000039   0.000344  -0.008625   0.004552   0.483578  -0.008912
    18  H    0.004261  -0.001881  -0.001545  -0.010053  -0.008912   0.479814
    19  H   -0.001245  -0.000040   0.001656  -0.001121   0.003376  -0.008645
    20  H   -0.005526   0.001414   0.002299  -0.002668  -0.001232  -0.010756
    21  H    0.002916   0.004253  -0.001554   0.002295   0.001650  -0.001530
    22  H    0.000895  -0.005482  -0.010036  -0.002668  -0.001122   0.002288
    23  H    0.000352  -0.001241  -0.008921  -0.001226   0.003377   0.001651
    24  H    0.002784  -0.034457  -0.011235   0.003361  -0.000487   0.001018
    25  H   -0.000765   0.012772  -0.010202  -0.003287   0.000764  -0.001100
    26  H    0.012724  -0.028518  -0.001088  -0.000152  -0.000713   0.001002
    27  H   -0.034436   0.006605   0.001026  -0.000433  -0.000650  -0.000504
    28  H    0.006566   0.002783  -0.000487  -0.003803   0.000419  -0.011246
    29  H   -0.028647  -0.000766   0.001006   0.002321  -0.000286  -0.010235
    30  H   -0.027402  -0.025954   0.000180  -0.000834  -0.000062   0.000123
    31  H    0.012774  -0.007397   0.000488   0.002892  -0.000245  -0.000377
    32  H   -0.003503   0.013563  -0.000637   0.002949  -0.000154   0.000604
    33  H    0.376853  -0.027388  -0.000214   0.000173   0.000028   0.000181
    34  H    0.380714  -0.003634   0.000273  -0.000164   0.000152  -0.000636
    35  H    0.384516   0.012812   0.000222  -0.000696  -0.000335   0.000486
    36  H   -0.007412   0.384607  -0.000375  -0.000181   0.000127   0.000221
    37  H    0.013601   0.380756   0.000600  -0.001015  -0.000330   0.000272
    38  H   -0.025954   0.376817   0.000122   0.000209   0.000045  -0.000213
              19         20         21         22         23         24
     1  C   -0.011970   0.041445  -0.009559  -0.094892  -0.060334   0.010905
     2  C    0.004371   0.000051   0.021391  -0.003092   0.001883   0.000666
     3  C   -0.062407  -0.105362  -0.007784   0.041227  -0.012140  -0.014415
     4  C    0.454060   0.482425  -0.042616   0.000177   0.004491  -0.001481
     5  C   -0.060528  -0.094961   0.352426  -0.105450  -0.062493   0.033235
     6  C    0.001846  -0.003122  -0.038992   0.482455   0.453894  -0.021182
     7  C    0.023691  -0.024264  -0.005113  -0.000947  -0.018985   0.310317
     8  C   -0.018929  -0.001165   0.092259   0.009751  -0.014870  -0.099941
     9  C    0.013381   0.023452  -0.048173   0.023282   0.013455   0.049134
    10  C   -0.014840   0.009655  -0.006896  -0.024293   0.023724   0.097265
    11  N    0.000238  -0.000781   0.003138  -0.000714   0.000255  -0.012412
    12  C    0.000346   0.000890  -0.001889   0.001429  -0.000034   0.006583
    13  C   -0.001245  -0.005526   0.002916   0.000895   0.000352   0.002784
    14  C   -0.000040   0.001414   0.004253  -0.005482  -0.001241  -0.034457
    15  H    0.001656   0.002299  -0.001554  -0.010036  -0.008921  -0.011235
    16  H   -0.001121  -0.002668   0.002295  -0.002668  -0.001226   0.003361
    17  H    0.003376  -0.001232   0.001650  -0.001122   0.003377  -0.000487
    18  H   -0.008645  -0.010756  -0.001530   0.002288   0.001651   0.001018
    19  H    0.483605   0.004571  -0.008933  -0.001229   0.003376  -0.000653
    20  H    0.004571   0.538829  -0.010102  -0.002665  -0.001118  -0.000430
    21  H   -0.008933  -0.010102   0.479885  -0.010738  -0.008623  -0.000489
    22  H   -0.001229  -0.002665  -0.010738   0.538704   0.004535  -0.003814
    23  H    0.003376  -0.001118  -0.008623   0.004535   0.483511   0.000427
    24  H   -0.000653  -0.000430  -0.000489  -0.003814   0.000427   0.541278
    25  H   -0.000713  -0.000154   0.001010   0.002316  -0.000296  -0.025098
    26  H   -0.000285   0.002331  -0.010239  -0.003290   0.000775   0.007169
    27  H    0.000429  -0.003785  -0.011231   0.003350  -0.000496  -0.002548
    28  H   -0.000489   0.003370   0.001015  -0.000430  -0.000652  -0.002539
    29  H    0.000772  -0.003282  -0.001091  -0.000154  -0.000717  -0.001458
    30  H    0.000045   0.000209  -0.000214   0.000172   0.000028  -0.001732
    31  H    0.000127  -0.000182   0.000222  -0.000696  -0.000335  -0.002296
    32  H   -0.000329  -0.001017   0.000273  -0.000164   0.000153   0.003915
    33  H   -0.000062  -0.000836   0.000126   0.000209   0.000045   0.000136
    34  H   -0.000153   0.002950   0.000591  -0.001013  -0.000329  -0.000083
    35  H   -0.000246   0.002899  -0.000378  -0.000182   0.000127   0.000131
    36  H   -0.000335  -0.000694   0.000491   0.002889  -0.000247  -0.004093
    37  H    0.000154  -0.000164  -0.000637   0.002946  -0.000154   0.003611
    38  H    0.000028   0.000172   0.000179  -0.000832  -0.000061   0.002362
              25         26         27         28         29         30
     1  C    0.020421   0.030748  -0.014277   0.033386  -0.013929   0.003210
     2  C   -0.027542  -0.000872  -0.001463  -0.021180  -0.000333  -0.002889
     3  C    0.030648  -0.013997   0.033253   0.011003   0.020185   0.002802
     4  C   -0.000874  -0.000298  -0.021162   0.000573  -0.027551   0.001543
     5  C   -0.013808   0.020046   0.010629  -0.014392   0.030696  -0.002220
     6  C   -0.000403  -0.027490   0.000627  -0.001474  -0.000862   0.001198
     7  C    0.279384  -0.112887   0.097358  -0.099762   0.093057  -0.029788
     8  C    0.092997   0.279084   0.311048   0.097234  -0.112960   0.009222
     9  C    0.111841   0.112579   0.048513   0.048437   0.113076   0.136969
    10  C   -0.112713   0.093001  -0.100087   0.310616   0.278817  -0.031613
    11  N   -0.039899  -0.040022  -0.012354  -0.012375  -0.040125  -0.052332
    12  C   -0.028522  -0.000780   0.002748  -0.034484   0.012765   0.376882
    13  C   -0.000765   0.012724  -0.034436   0.006566  -0.028647  -0.027402
    14  C    0.012772  -0.028518   0.006605   0.002783  -0.000766  -0.025954
    15  H   -0.010202  -0.001088   0.001026  -0.000487   0.001006   0.000180
    16  H   -0.003287  -0.000152  -0.000433  -0.003803   0.002321  -0.000834
    17  H    0.000764  -0.000713  -0.000650   0.000419  -0.000286  -0.000062
    18  H   -0.001100   0.001002  -0.000504  -0.011246  -0.010235   0.000123
    19  H   -0.000713  -0.000285   0.000429  -0.000489   0.000772   0.000045
    20  H   -0.000154   0.002331  -0.003785   0.003370  -0.003282   0.000209
    21  H    0.001010  -0.010239  -0.011231   0.001015  -0.001091  -0.000214
    22  H    0.002316  -0.003290   0.003350  -0.000430  -0.000154   0.000172
    23  H   -0.000296   0.000775  -0.000496  -0.000652  -0.000717   0.000028
    24  H   -0.025098   0.007169  -0.002548  -0.002539  -0.001458  -0.001732
    25  H    0.538613  -0.002381  -0.001455   0.007180  -0.002383   0.003398
    26  H   -0.002381   0.538641  -0.025052  -0.001450  -0.002395   0.000045
    27  H   -0.001455  -0.025052   0.541350  -0.002531   0.007182   0.000134
    28  H    0.007180  -0.001450  -0.002531   0.541265  -0.025060   0.002362
    29  H   -0.002383  -0.002395   0.007182  -0.025060   0.538728  -0.001690
    30  H    0.003398   0.000045   0.000134   0.002362  -0.001690   0.463995
    31  H    0.003000   0.000303   0.000136  -0.004089   0.003732  -0.024556
    32  H   -0.005278  -0.000062  -0.000088   0.003587  -0.001767  -0.024987
    33  H    0.000041  -0.001695   0.002353  -0.001739   0.003403  -0.001520
    34  H   -0.000058  -0.001776   0.003610   0.003909  -0.005256   0.001974
    35  H    0.000303   0.003738  -0.004076  -0.002282   0.002988  -0.001972
    36  H    0.003731   0.002968  -0.002288   0.000136   0.000298   0.001882
    37  H   -0.001792  -0.005286   0.003904  -0.000089  -0.000056  -0.001802
    38  H   -0.001690   0.003410  -0.001727   0.000136   0.000043  -0.001512
              31         32         33         34         35         36
     1  C   -0.012020  -0.007043  -0.002231   0.008298   0.009807  -0.000753
     2  C    0.003227   0.005612   0.001203  -0.001725  -0.001792  -0.003886
     3  C   -0.000770  -0.011081   0.003199  -0.006986  -0.012063   0.009777
     4  C   -0.003909  -0.000207  -0.002878   0.005604   0.003211  -0.001809
     5  C    0.009802   0.008292   0.002809  -0.011053  -0.000784  -0.012030
     6  C   -0.001810  -0.001710   0.001541  -0.000209  -0.003909   0.003212
     7  C    0.091888   0.013515   0.009231  -0.029644  -0.031144   0.022566
     8  C   -0.031115  -0.029739  -0.031599   0.077114   0.022513   0.092007
     9  C   -0.092216  -0.089018   0.136906  -0.088449  -0.092405  -0.092764
    10  C    0.022408   0.077455  -0.029790   0.013428   0.091865  -0.031144
    11  N   -0.017256   0.000836  -0.052307   0.000570  -0.017111  -0.017037
    12  C    0.384449   0.380743  -0.025906   0.013581  -0.007422   0.012814
    13  C    0.012774  -0.003503   0.376853   0.380714   0.384516  -0.007412
    14  C   -0.007397   0.013563  -0.027388  -0.003634   0.012812   0.384607
    15  H    0.000488  -0.000637  -0.000214   0.000273   0.000222  -0.000375
    16  H    0.002892   0.002949   0.000173  -0.000164  -0.000696  -0.000181
    17  H   -0.000245  -0.000154   0.000028   0.000152  -0.000335   0.000127
    18  H   -0.000377   0.000604   0.000181  -0.000636   0.000486   0.000221
    19  H    0.000127  -0.000329  -0.000062  -0.000153  -0.000246  -0.000335
    20  H   -0.000182  -0.001017  -0.000836   0.002950   0.002899  -0.000694
    21  H    0.000222   0.000273   0.000126   0.000591  -0.000378   0.000491
    22  H   -0.000696  -0.000164   0.000209  -0.001013  -0.000182   0.002889
    23  H   -0.000335   0.000153   0.000045  -0.000329   0.000127  -0.000247
    24  H   -0.002296   0.003915   0.000136  -0.000083   0.000131  -0.004093
    25  H    0.003000  -0.005278   0.000041  -0.000058   0.000303   0.003731
    26  H    0.000303  -0.000062  -0.001695  -0.001776   0.003738   0.002968
    27  H    0.000136  -0.000088   0.002353   0.003610  -0.004076  -0.002288
    28  H   -0.004089   0.003587  -0.001739   0.003909  -0.002282   0.000136
    29  H    0.003732  -0.001767   0.003403  -0.005256   0.002988   0.000298
    30  H   -0.024556  -0.024987  -0.001520   0.001974  -0.001972   0.001882
    31  H    0.479116  -0.030204   0.001881  -0.005464   0.004542   0.004534
    32  H   -0.030204   0.482122  -0.001799   0.004386  -0.007720  -0.005464
    33  H    0.001881  -0.001799   0.463994  -0.024967  -0.024594  -0.001979
    34  H   -0.005464   0.004386  -0.024967   0.482107  -0.030185  -0.007677
    35  H    0.004542  -0.007720  -0.024594  -0.030185   0.479033   0.004537
    36  H    0.004534  -0.005464  -0.001979  -0.007677   0.004537   0.479010
    37  H   -0.007704   0.004385   0.001977   0.004383  -0.005466  -0.030177
    38  H   -0.001971   0.001973  -0.001527  -0.001804   0.001888  -0.024538
              37         38
     1  C   -0.011117   0.002804
     2  C   -0.000211   0.001538
     3  C    0.008270  -0.002210
     4  C   -0.001696   0.001192
     5  C   -0.007021   0.003201
     6  C    0.005630  -0.002882
     7  C    0.077385  -0.031702
     8  C    0.013426  -0.029836
     9  C   -0.089062   0.137386
    10  C   -0.029659   0.009237
    11  N    0.000920  -0.052530
    12  C   -0.003532  -0.027428
    13  C    0.013601  -0.025954
    14  C    0.380756   0.376817
    15  H    0.000600   0.000122
    16  H   -0.001015   0.000209
    17  H   -0.000330   0.000045
    18  H    0.000272  -0.000213
    19  H    0.000154   0.000028
    20  H   -0.000164   0.000172
    21  H   -0.000637   0.000179
    22  H    0.002946  -0.000832
    23  H   -0.000154  -0.000061
    24  H    0.003611   0.002362
    25  H   -0.001792  -0.001690
    26  H   -0.005286   0.003410
    27  H    0.003904  -0.001727
    28  H   -0.000089   0.000136
    29  H   -0.000056   0.000043
    30  H   -0.001802  -0.001512
    31  H   -0.007704  -0.001971
    32  H    0.004385   0.001973
    33  H    0.001977  -0.001527
    34  H    0.004383  -0.001804
    35  H   -0.005466   0.001888
    36  H   -0.030177  -0.024538
    37  H    0.482077  -0.024991
    38  H   -0.024991   0.463951
 Mulliken charges:
               1
     1  C    0.397762
     2  C   -0.742666
     3  C    0.393059
     4  C   -0.741203
     5  C    0.393911
     6  C   -0.743445
     7  C   -0.609804
     8  C   -0.608790
     9  C   -0.674455
    10  C   -0.607942
    11  N    0.376033
    12  C   -0.229463
    13  C   -0.230015
    14  C   -0.230007
    15  H    0.262599
    16  H    0.157166
    17  H    0.197189
    18  H    0.262571
    19  H    0.197078
    20  H    0.157302
    21  H    0.262662
    22  H    0.157277
    23  H    0.197217
    24  H    0.166545
    25  H    0.171995
    26  H    0.172163
    27  H    0.166385
    28  H    0.166577
    29  H    0.171934
    30  H    0.226704
    31  H    0.219089
    32  H    0.217607
    33  H    0.226742
    34  H    0.217622
    35  H    0.219144
    36  H    0.219079
    37  H    0.217665
    38  H    0.226715
 Sum of Mulliken charges =   1.00000
 Mulliken charges with hydrogens summed into heavy atoms:
               1
     1  C    0.660361
     2  C   -0.388311
     3  C    0.655630
     4  C   -0.386824
     5  C    0.656573
     6  C   -0.388952
     7  C   -0.271264
     8  C   -0.270242
     9  C   -0.674455
    10  C   -0.269430
    11  N    0.376033
    12  C    0.433937
    13  C    0.433493
    14  C    0.433452
 Electronic spatial extent (au):  <R**2>=           2542.9826
 Charge=              1.0000 electrons
 Dipole moment (field-independent basis, Debye):
    X=             -6.5676    Y=              0.0002    Z=             -0.0002  Tot=              6.5676
 Quadrupole moment (field-independent basis, Debye-Ang):
   XX=            -56.0640   YY=            -78.8502   ZZ=            -78.8517
   XY=              0.0006   XZ=              0.0001   YZ=              0.0006
 Traceless Quadrupole moment (field-independent basis, Debye-Ang):
   XX=             15.1913   YY=             -7.5949   ZZ=             -7.5964
   XY=              0.0006   XZ=              0.0001   YZ=              0.0006
 Octapole moment (field-independent basis, Debye-Ang**2):
  XXX=            -71.0906  YYY=              0.3874  ZZZ=              1.4600  XYY=            -14.9392
  XXY=              0.0015  XXZ=             -0.0021  XZZ=            -14.9369  YZZ=             -0.3858
[...]
 N-N= 1.063564923489D+03 E-N=-3.418235396779D+03  KE= 5.616876930587D+02

 **********************************************************************

            Electrostatic Properties Using The SCF Density

 **********************************************************************

       Atomic Center    1 is at   1.631247  0.814397  1.196375
       Atomic Center    2 is at   2.142110  1.450594 -0.108056
       Atomic Center    3 is at   1.630847  0.628840 -1.303376
       Atomic Center    4 is at   2.140573 -0.819574 -1.202676
       Atomic Center    5 is at   1.629932 -1.443553  0.106958
       Atomic Center    6 is at   2.141281 -0.632424  1.310309
       Atomic Center    7 is at   0.081540  0.827752  1.194510
       Atomic Center    8 is at   0.080435 -1.448218  0.119431
       Atomic Center    9 is at  -0.436046  0.000248 -0.000342
       Atomic Center   10 is at   0.081330  0.621821 -1.313737
       Atomic Center   11 is at  -2.057261  0.000229 -0.000195
       Atomic Center   12 is at  -2.611037  1.393658  0.158863
       Atomic Center   13 is at  -2.610587 -0.559804 -1.286286
       Atomic Center   14 is at  -2.609615 -0.834055  1.127869
       Atomic Center   15 is at   1.969091  1.399592  2.055762
       Atomic Center   16 is at   1.804688  2.490177 -0.184738
       Atomic Center   17 is at   3.235615  1.474034 -0.110599
       Atomic Center   18 is at   1.968952  1.080366 -2.239808
       Atomic Center   19 is at   3.234072 -0.834291 -1.222426
       Atomic Center   20 is at   1.802160 -1.405141 -2.064671
       Atomic Center   21 is at   1.967704 -2.480412  0.184275
       Atomic Center   22 is at   1.803558 -1.085978  2.248688
       Atomic Center   23 is at   3.234786 -0.642388  1.331640
       Atomic Center   24 is at  -0.280215  0.422168  2.143888
       Atomic Center   25 is at  -0.251291  1.865620  1.125452
       Atomic Center   26 is at  -0.252994 -1.906896  1.052827
       Atomic Center   27 is at  -0.281363 -2.068133 -0.706051
       Atomic Center   28 is at  -0.279088  1.647429 -1.435080
       Atomic Center   29 is at  -0.251645  0.045074 -2.179167
       Atomic Center   30 is at  -3.687492  1.350345 -0.001945
       Atomic Center   31 is at  -2.411218  1.756164  1.162748
       Atomic Center   32 is at  -2.162750  2.055779 -0.576744
       Atomic Center   33 is at  -3.686842 -0.678827 -1.168377
       Atomic Center   34 is at  -2.160543 -1.527287 -1.491099
       Atomic Center   35 is at  -2.411622  0.128419 -2.102273
       Atomic Center   36 is at  -2.413138 -1.885002  0.937928
       Atomic Center   37 is at  -2.156111 -0.529880  2.067158
       Atomic Center   38 is at  -3.685545 -0.670627  1.174930
 -----------------------------------------------------------------

              Electrostatic Properties (Atomic Units)

 -----------------------------------------------------------------
    Center     Electric         -------- Electric Field --------
               Potential          X             Y             Z
 -----------------------------------------------------------------
    1 Atom    -14.645557      0.002904     -0.000002      0.000100
    2 Atom    -14.665301     -0.000110     -0.000835      0.000106
    3 Atom    -14.645616      0.002927      0.000064     -0.000082
    4 Atom    -14.665284     -0.000105      0.000531      0.000665
    5 Atom    -14.645602      0.002925     -0.000113     -0.000021
    6 Atom    -14.665279     -0.000115      0.000347     -0.000774
    7 Atom    -14.634392      0.004039      0.000566      0.000687
    8 Atom    -14.634432      0.004051     -0.000889      0.000145
    9 Atom    -14.560438      0.009002     -0.000005      0.000017
   10 Atom    -14.634466      0.004047      0.000319     -0.000834
   11 Atom    -18.122934      0.006217      0.000003     -0.000008
   12 Atom    -14.577116     -0.003364      0.007888      0.001253
   13 Atom    -14.577121     -0.003351     -0.002853     -0.007445
   14 Atom    -14.577130     -0.003357     -0.005032      0.006208
   15 Atom     -1.012190      0.005771      0.009854      0.014484
   16 Atom     -1.014758     -0.005178      0.017128     -0.001266
   17 Atom     -1.015883      0.018207      0.000637     -0.000078
   18 Atom     -1.012244      0.005761      0.007593     -0.015817
   19 Atom     -1.015877      0.018196     -0.000406     -0.000532
   20 Atom     -1.014737     -0.005205     -0.009671     -0.014192
   21 Atom     -1.012228      0.005743     -0.017491      0.001303
   22 Atom     -1.014759     -0.005187     -0.007451      0.015512
   23 Atom     -1.015885      0.018203     -0.000292      0.000612
   24 Atom     -0.982006     -0.005832     -0.006446      0.015868
   25 Atom     -0.984038     -0.005344      0.017505     -0.000908
   26 Atom     -0.984033     -0.005282     -0.007938      0.015602
   27 Atom     -0.982018     -0.005854     -0.010494     -0.013571
   28 Atom     -0.982061     -0.005893      0.017024     -0.002369
   29 Atom     -0.984025     -0.005434     -0.009570     -0.014735
   30 Atom     -0.938160     -0.018571     -0.000250     -0.002712
   31 Atom     -0.940132      0.003291      0.006661      0.017631
   32 Atom     -0.938955      0.007786      0.011836     -0.012787
   33 Atom     -0.938147     -0.018603     -0.002255      0.001593
   34 Atom     -0.938937      0.007752     -0.016957     -0.003902
   35 Atom     -0.940139      0.003280      0.011935     -0.014615
   36 Atom     -0.940146      0.003241     -0.018593     -0.003053
   37 Atom     -0.938958      0.007729      0.005060      0.016676
   38 Atom     -0.938139     -0.018529      0.002543      0.001214
 -----------------------------------------------------------------
 -----------------------------------------------------
    Center         ---- Electric Field Gradient ----
                     XX            YY            ZZ
 -----------------------------------------------------
    1 Atom     -500.396523   -500.237731   -500.217640
    2 Atom     -500.290590   -500.339389   -500.377146
    3 Atom     -500.396521   -500.245768   -500.210319
    4 Atom     -500.290381   -500.366089   -500.350283
    5 Atom     -500.396005   -500.199940   -500.254939
    6 Atom     -500.290682   -500.369724   -500.347210
    7 Atom     -500.357681   -500.375950   -500.438134
    8 Atom     -500.356937   -500.483981   -500.328692
    9 Atom     -501.270046   -500.446469   -500.446443
   10 Atom     -500.357069   -500.359845   -500.452775
   11 Atom     -812.964361   -813.084025   -813.083791
   12 Atom     -500.402274   -500.818128   -500.289864
   13 Atom     -500.402308   -500.372959   -500.736286
   14 Atom     -500.401728   -500.471887   -500.637310
   15 Atom       -1.755541     -1.837100     -1.984609
   16 Atom       -1.746472     -2.098358     -1.706245
   17 Atom       -2.140919     -1.695738     -1.698219
   18 Atom       -1.755730     -1.785551     -2.036398
   19 Atom       -2.140841     -1.697419     -1.696502
   20 Atom       -1.746708     -1.829155     -1.975192
   21 Atom       -1.755590     -2.110077     -1.711814
   22 Atom       -1.746621     -1.779255     -2.025544
   23 Atom       -2.140925     -1.697769     -1.696222
   24 Atom       -1.759236     -1.768791     -2.038584
   25 Atom       -1.757948     -2.113351     -1.714139
   26 Atom       -1.758117     -1.789334     -2.038022
   27 Atom       -1.759280     -1.846720     -1.960740
   28 Atom       -1.758993     -2.096616     -1.711536
   29 Atom       -1.758099     -1.837704     -1.990057
   30 Atom       -2.118524     -1.699897     -1.684101
   31 Atom       -1.698404     -1.745499     -2.075487
   32 Atom       -1.763003     -1.858172     -1.892411
   33 Atom       -2.118521     -1.681741     -1.702367
   34 Atom       -1.763607     -2.042379     -1.707626
   35 Atom       -1.698285     -1.875396     -1.945856
   36 Atom       -1.697902     -2.110940     -1.710698
   37 Atom       -1.764958     -1.724447     -2.024619
   38 Atom       -2.117904     -1.694761     -1.689464
 -----------------------------------------------------
 -----------------------------------------------------
    Center         ---- Electric Field Gradient ----
                     XY            XZ            YZ
 -----------------------------------------------------
    1 Atom        0.009304      0.013584      0.026008
    2 Atom       -0.034280      0.002319     -0.001858
    3 Atom        0.007301     -0.014802     -0.021562
    4 Atom        0.019078      0.028486      0.017262
    5 Atom       -0.016376      0.001204     -0.004502
    6 Atom        0.015233     -0.030869     -0.015439
    7 Atom       -0.029743     -0.031982     -0.071898
    8 Atom        0.042292     -0.009734      0.009108
    9 Atom        0.000207     -0.000088     -0.000106
   10 Atom       -0.012880      0.041703      0.062880
   11 Atom        0.000138     -0.000095     -0.000200
   12 Atom        0.237361      0.026896     -0.057540
   13 Atom       -0.095492     -0.218659     -0.200534
   14 Atom       -0.141427      0.191689      0.257749
   15 Atom       -0.072249     -0.106291     -0.187363
   16 Atom        0.133110     -0.009665      0.029045
   17 Atom       -0.006906      0.000832     -0.000171
   18 Atom       -0.055952      0.115804      0.157507
   19 Atom        0.004502      0.005863      0.001157
   20 Atom       -0.075068     -0.110774     -0.184136
   21 Atom        0.128130     -0.009446      0.029899
   22 Atom       -0.058288      0.120236      0.155348
   23 Atom        0.002930     -0.006314     -0.000975
   24 Atom       -0.060935      0.128605      0.143972
   25 Atom        0.131755     -0.012756      0.028264
   26 Atom       -0.054825      0.120644      0.158526
   27 Atom       -0.081015     -0.117035     -0.188914
   28 Atom        0.141483     -0.011243      0.044133
   29 Atom       -0.076802     -0.108036     -0.186774
   30 Atom       -0.021510     -0.066778     -0.007429
   31 Atom       -0.020204     -0.082694     -0.135920
   32 Atom       -0.107682      0.135645      0.183629
   33 Atom       -0.047673      0.052038     -0.003050
   34 Atom        0.171795      0.025425     -0.076679
   35 Atom       -0.061287      0.058610      0.210945
   36 Atom        0.080377      0.023704     -0.075733
   37 Atom       -0.063886     -0.162562     -0.105696
   38 Atom        0.069624      0.016462      0.010252
 -----------------------------------------------------
 -----------------------------------------------------
    Center         ---- Electric Field Gradient ----
                   ----       Eigenvalues       ----
 -----------------------------------------------------
    1 Atom     -500.397891   -500.255566   -500.198436
    2 Atom     -500.377245   -500.357049   -500.272832
    3 Atom     -500.397899   -500.255955   -500.198755
    4 Atom     -500.377179   -500.356868   -500.272706
    5 Atom     -500.397368   -500.255305   -500.198211
    6 Atom     -500.377577   -500.357175   -500.272864
    7 Atom     -500.498566   -500.347152   -500.326048
    8 Atom     -500.497561   -500.346529   -500.325519
    9 Atom     -501.270046   -500.446563   -500.446349
   10 Atom     -500.497694   -500.346528   -500.325467
   11 Atom     -813.084139   -813.083677   -812.964361
   12 Atom     -500.932036   -500.294696   -500.283535
   13 Atom     -500.932567   -500.295083   -500.283903
   14 Atom     -500.932253   -500.294899   -500.283774
   15 Atom       -2.153697     -1.714059     -1.709494
   16 Atom       -2.145172     -1.704113     -1.701790
   17 Atom       -2.141028     -1.698230     -1.695618
   18 Atom       -2.153865     -1.714186     -1.709627
   19 Atom       -2.140963     -1.698205     -1.695594
   20 Atom       -2.145194     -1.704096     -1.701765
   21 Atom       -2.153764     -1.714138     -1.709579
   22 Atom       -2.145407     -1.704172     -1.701841
   23 Atom       -2.141034     -1.698240     -1.695642
   24 Atom       -2.152437     -1.711626     -1.702548
   25 Atom       -2.159005     -1.716678     -1.709756
   26 Atom       -2.158938     -1.716744     -1.709792
   27 Atom       -2.152529     -1.711626     -1.702584
   28 Atom       -2.152721     -1.711717     -1.702707
   29 Atom       -2.159353     -1.716729     -1.709778
   30 Atom       -2.129722     -1.699410     -1.673390
   31 Atom       -2.140481     -1.700830     -1.678080
   32 Atom       -2.139155     -1.698487     -1.675943
   33 Atom       -2.129849     -1.699392     -1.673387
   34 Atom       -2.139120     -1.698527     -1.675965
   35 Atom       -2.140580     -1.700846     -1.678111
   36 Atom       -2.140487     -1.700896     -1.678157
   37 Atom       -2.139295     -1.698642     -1.676086
   38 Atom       -2.129552     -1.699291     -1.673286
 -----------------------------------------------------
 -----------------------------------------------------
    Center         ---- Electric Field Gradient ----
                       ( tensor representation )
                   3XX-RR        3YY-RR        3ZZ-RR
 -----------------------------------------------------
    1 Atom       -0.112558      0.046234      0.066324
    2 Atom        0.045118     -0.003680     -0.041438
    3 Atom       -0.112318      0.038434      0.073884
    4 Atom        0.045203     -0.030505     -0.014699
    5 Atom       -0.112377      0.083688      0.028689
    6 Atom        0.045190     -0.033851     -0.011338
    7 Atom        0.032907      0.014638     -0.047546
    8 Atom        0.032933     -0.094111      0.061178
    9 Atom       -0.549060      0.274517      0.274543
   10 Atom        0.032828      0.030051     -0.062879
   11 Atom        0.079698     -0.039966     -0.039732
   12 Atom        0.101148     -0.314706      0.213558
   13 Atom        0.101543      0.130892     -0.232435
   14 Atom        0.101914      0.031754     -0.133668
   15 Atom        0.103542      0.021984     -0.125526
   16 Atom        0.103886     -0.248000      0.144114
   17 Atom       -0.295960      0.149221      0.146740
   18 Atom        0.103496      0.073675     -0.177172
   19 Atom       -0.295920      0.147501      0.148418
   20 Atom        0.103644      0.021197     -0.124840
   21 Atom        0.103570     -0.250916      0.147347
   22 Atom        0.103852      0.071219     -0.175071
   23 Atom       -0.295953      0.147203      0.148750
   24 Atom        0.096301      0.086746     -0.183047
   25 Atom        0.103865     -0.251538      0.147673
   26 Atom        0.103707      0.072490     -0.176198
   27 Atom        0.096300      0.008860     -0.105160
   28 Atom        0.096722     -0.240901      0.144179
   29 Atom        0.103854      0.024249     -0.128104
   30 Atom       -0.284350      0.134277      0.150073
   31 Atom        0.141393      0.094298     -0.235690
   32 Atom        0.074859     -0.020310     -0.054549
   33 Atom       -0.284312      0.152469      0.131843
   34 Atom        0.074263     -0.204508      0.130244
   35 Atom        0.141561     -0.035551     -0.106010
   36 Atom        0.141945     -0.271094      0.129149
   37 Atom        0.073050      0.113561     -0.186611
   38 Atom       -0.283861      0.139282      0.144579
 -----------------------------------------------------
 -----------------------------------------------------
    Center         ---- Electric Field Gradient ----
                       ( tensor representation )
                   ----       Eigenvalues       ----
 -----------------------------------------------------
    1 Atom       -0.113927      0.028398      0.085528
    2 Atom       -0.041536     -0.021341      0.062877
    3 Atom       -0.113696      0.028248      0.085448
    4 Atom       -0.041595     -0.021284      0.062878
    5 Atom       -0.113740      0.028323      0.085417
    6 Atom       -0.041705     -0.021303      0.063008
    7 Atom       -0.107978      0.043437      0.064541
    8 Atom       -0.107691      0.043341      0.064351
    9 Atom       -0.549060      0.274423      0.274637
   10 Atom       -0.107798      0.043369      0.064430
   11 Atom       -0.040080     -0.039618      0.079698
   12 Atom       -0.428614      0.208726      0.219888
   13 Atom       -0.428716      0.208768      0.219948
   14 Atom       -0.428611      0.208743      0.219868
   15 Atom       -0.294614      0.145025      0.149589
   16 Atom       -0.294814      0.146246      0.148568
   17 Atom       -0.296069      0.146728      0.149341
   18 Atom       -0.294639      0.145040      0.149599
   19 Atom       -0.296043      0.146716      0.149327
   20 Atom       -0.294842      0.146256      0.148587
   21 Atom       -0.294604      0.145023      0.149581
   22 Atom       -0.294934      0.146302      0.148633
   23 Atom       -0.296062      0.146732      0.149330
   24 Atom       -0.296900      0.143911      0.152989
   25 Atom       -0.297192      0.145135      0.152057
   26 Atom       -0.297113      0.145081      0.152032
   27 Atom       -0.296949      0.143954      0.152996
   28 Atom       -0.297006      0.143998      0.153008
   29 Atom       -0.297400      0.145224      0.152175
   30 Atom       -0.295548      0.134764      0.160784
   31 Atom       -0.300684      0.138967      0.161717
   32 Atom       -0.301293      0.139375      0.161919
   33 Atom       -0.295640      0.134817      0.160822
   34 Atom       -0.301249      0.139344      0.161906
   35 Atom       -0.300734      0.139000      0.161735
   36 Atom       -0.300640      0.138951      0.161689
   37 Atom       -0.301287      0.139366      0.161922
   38 Atom       -0.295509      0.134752      0.160757
 -----------------------------------------------------

 Test job not archived.
 1|1|UNPC-NP-ALMACH|FOpt|RB3LYP|6-311++G(d,p)|C13H24N1(1+)|HERA|23-Aug-
 2018|0||# RB3LYP/6-311++G** Opt Test prop=EFG||C13NH24||1,1|C,0.719893
 3243,-1.719824924,1.4418202229|C,1.9695901735,-1.8460473489,0.55323032
 91|C,1.6142245065,-1.4160747987,-0.8800527251|C,0.4942153188,-2.312921
 2716,-1.4360301807|C,-0.7471845744,-2.1842923142,-0.5373516241|C,-0.40
 42347351,-2.6184027071,0.8984050074|C,0.2531696099,-0.2420597614,1.454
 1648555|C,-1.2352478612,-0.713707416,-0.5201692427|C,-0.1092507771,0.1
 922807933,0.0187796379|C,1.1337639292,0.0571183405,-0.884372383|N,-0.6
 103233341,1.7340947411,0.0273580132|C,0.3397959018,2.6209124375,0.7918
 429125|C,-0.7172829597,2.2888181589,-1.3707397792|C,-1.967487648,1.870
 3718255,0.6701539233|H,0.9614128286,-2.0022217272,2.4699538815|H,2.784
 1045588,-1.2287570961,0.9481818781|H,2.3285694166,-2.8792151458,0.5556
 637203|H,2.49808774,-1.4808796337,-1.5201156296|H,0.8279001805,-3.3541
 244594,-1.4659648488|H,0.2533023097,-2.0297155251,-2.4666630922|H,-1.5
 595350205,-2.8012559501,-0.9305259244|H,-1.2905299363,-2.554794437,1.5
 393086113|H,-0.0837946583,-3.6641300133,0.9073848357|H,-0.604277908,-0
 .1439801704,2.1263609492|H,1.0644295977,0.3693123313,1.8551612302|H,-2
 .1224868544,-0.6548846149,0.1139716078|H,-1.5280545204,-0.4228723266,-
 1.5332297638|H,1.9480615581,0.6987705473,-0.5355199517|H,0.9034981308,
 0.3380618948,-1.9141912501|H,0.0379295859,3.6555630771,0.6341508975|H,
 0.287915913,2.3881407457,1.8512061067|H,1.3527209323,2.4806936097,0.42
 46847106|H,-1.201020958,3.2629766101,-1.3123793129|H,-1.3169697029,1.6
 241236735,-1.9864257594|H,0.2747032117,2.4042761206,-1.7970107378|H,-2
 .7229681387,1.4217980487,0.032031501|H,-1.9635119364,1.3894702708,1.64
 44077635|H,-2.180433204,2.9318384152,0.7905366102||Version=EM64W-G09Re
 vD.01|State=1-A|HF=-564.5186901|RMSD=3.501e-009|RMSF=8.821e-005|Dipole
 =-0.743245,2.2881145,0.0124854|Quadrupole=-3.8700568,9.295027,-5.42497
 02,-4.7829188,-0.0236545,0.0803486|PG=C01 [X(C13H24N1)]||@


 EVERYTHING'S GOT A MORAL, IF ONLY YOU CAN FIND IT.

                                    -- LEWIS CARROL, ALICE IN WONDERLAND
 Job cpu time:       0 days  1 hours 30 minutes 47.0 seconds.
 File lengths (MBytes):  RWF=    102 Int=      0 D2E=      0 Chk=     17 Scr=      1
 Normal termination of Gaussian 09 at Thu Aug 23 00:59:12 2018.
