 Entering Link 1 = C:\G09W\l1.exe PID=      4500.
  
 Copyright (c) 1988,1990,1992,1993,1995,1998,2003,2009,2013,
            Gaussian, Inc.  All Rights Reserved.
  
 This is part of the Gaussian(R) 09 program.  It is based on
 the Gaussian(R) 03 system (copyright 2003, Gaussian, Inc.),
 the Gaussian(R) 98 system (copyright 1998, Gaussian, Inc.),
 the Gaussian(R) 94 system (copyright 1995, Gaussian, Inc.),
 the Gaussian 92(TM) system (copyright 1992, Gaussian, Inc.),
 the Gaussian 90(TM) system (copyright 1990, Gaussian, Inc.),
 the Gaussian 88(TM) system (copyright 1988, Gaussian, Inc.),
 the Gaussian 86(TM) system (copyright 1986, Carnegie Mellon
 University), and the Gaussian 82(TM) system (copyright 1983,
 Carnegie Mellon University). Gaussian is a federally registered
 trademark of Gaussian, Inc.
  
 This software contains proprietary and confidential information,
 including trade secrets, belonging to Gaussian, Inc.
  
 This software is provided under written license and may be
 used, copied, transmitted, or stored only in accord with that
 written license.
  
 The following legend is applicable only to US Government
 contracts under FAR:
  
                    RESTRICTED RIGHTS LEGEND
  
 Use, reproduction and disclosure by the US Government is
 subject to restrictions as set forth in subparagraphs (a)
 and (c) of the Commercial Computer Software - Restricted
 Rights clause in FAR 52.227-19.
  
 Gaussian, Inc.
 340 Quinnipiac St., Bldg. 40, Wallingford CT 06492
  
  
 ---------------------------------------------------------------
 Warning -- This program may not be used in any manner that
 competes with the business of Gaussian, Inc. or will provide
 assistance to any competitor of Gaussian, Inc.  The licensee
 of this program is prohibited from giving any competitor of
 Gaussian, Inc. access to this program.  By using this program,
 the user acknowledges that Gaussian, Inc. is engaged in the
 business of creating and licensing software in the field of
 computational chemistry and represents and warrants to the
 licensee that it is not a competitor of Gaussian, Inc. and that
 it will not use this program in any manner prohibited above.
 ---------------------------------------------------------------
  

 Cite this work as:
 Gaussian 09, Revision D.01,
 M. J. Frisch, G. W. Trucks, H. B. Schlegel, G. E. Scuseria, 
 M. A. Robb, J. R. Cheeseman, G. Scalmani, V. Barone, B. Mennucci, 
 G. A. Petersson, H. Nakatsuji, M. Caricato, X. Li, H. P. Hratchian, 
 A. F. Izmaylov, J. Bloino, G. Zheng, J. L. Sonnenberg, M. Hada, 
 M. Ehara, K. Toyota, R. Fukuda, J. Hasegawa, M. Ishida, T. Nakajima, 
 Y. Honda, O. Kitao, H. Nakai, T. Vreven, J. A. Montgomery, Jr., 
 J. E. Peralta, F. Ogliaro, M. Bearpark, J. J. Heyd, E. Brothers, 
 K. N. Kudin, V. N. Staroverov, T. Keith, R. Kobayashi, J. Normand, 
 K. Raghavachari, A. Rendell, J. C. Burant, S. S. Iyengar, J. Tomasi, 
 M. Cossi, N. Rega, J. M. Millam, M. Klene, J. E. Knox, J. B. Cross, 
 V. Bakken, C. Adamo, J. Jaramillo, R. Gomperts, R. E. Stratmann, 
 O. Yazyev, A. J. Austin, R. Cammi, C. Pomelli, J. W. Ochterski, 
 R. L. Martin, K. Morokuma, V. G. Zakrzewski, G. A. Voth, 
 P. Salvador, J. J. Dannenberg, S. Dapprich, A. D. Daniels, 
 O. Farkas, J. B. Foresman, J. V. Ortiz, J. Cioslowski, 
 and D. J. Fox, Gaussian, Inc., Wallingford CT, 2013.
 
 ******************************************
 Gaussian 09:  EM64W-G09RevD.01 13-Apr-2013
                23-Aug-2018 
 ******************************************
 %Chk=Anth_207.chk
 %Mem=64GB
 %NProcShared=20
 Will use up to   20 processors via shared memory.
 -------------------------------------
 # RB3LYP/6-311++G** Opt Test prop=EFG
 -------------------------------------
 1/14=-1,18=20,19=15,26=3,38=1/1,3;
 2/9=110,12=2,17=6,18=5,40=1/2;
 3/5=4,6=6,7=1111,11=2,16=1,25=1,30=1,71=1,74=-5,116=1/1,2,3;
 4//1;
 5/5=2,38=5/2;
 6/7=2,8=2,9=2,10=2,14=1,28=1/1,2;
 7//1,2,3,16;
 1/14=-1,18=20,19=15,26=3/3(2);
 2/9=110/2;
 99//99;
 2/9=110/2;
 3/5=4,6=6,7=1111,11=2,16=1,25=1,30=1,71=1,74=-5,116=1/1,2,3;
 4/5=5,16=3,69=1/1;
 5/5=2,38=5/2;
 7//1,2,3,16;
 1/14=-1,18=20,19=15,26=3/3(-5);
 2/9=110/2;
 6/7=2,8=2,9=2,10=2,14=1,19=2,28=1/1,2;
 99/9=1/99;
 --------
 C12N2H23
 --------
 Symbolic Z-matrix:
 Charge =  1 Multiplicity = 1
 C                    -4.61392   0.88748  -1.02481 
 N                    -3.41744   0.38489  -0.88032 
 C                    -3.52545  -0.84949  -1.30069 
 C                    -4.78091  -1.10092  -1.7002 
 N                    -5.37757  -0.0025   -1.5024 
 C                    -6.79883   0.22936  -1.79023 
 C                    -2.21074   1.11083  -0.34223 
 C                    -0.92533   0.27298  -0.28159 
 C                     0.2607    1.07749   0.27628 
 C                     1.54676   0.23709   0.33629 
 C                     2.73391   1.03939   0.89372 
 C                     4.01875   0.19722   0.95286 
 C                     5.20722   0.99701   1.50981 
 C                     6.48684   0.15194   1.5667 
 H                    -4.93877   1.90521  -0.78353 
 H                    -2.70099  -1.5724   -1.32097 
 H                    -5.23974  -2.00762  -2.10556 
 H                    -7.29338  -0.67779  -2.2051 
 H                    -7.33939   0.51522  -0.85902 
 H                    -6.91274   1.04939  -2.53566 
 H                    -2.03178   2.00762  -0.98169 
 H                    -2.4554    1.47819   0.68264 
 H                    -1.09606  -0.62025   0.36551 
 H                    -0.67047  -0.0883   -1.30641 
 H                     0.43475   1.97372  -0.36549 
 H                     0.0107    1.44372   1.30037 
 H                     1.37274  -0.65915   0.97809 
 H                     1.7968   -0.12916  -0.68781 
 H                     2.90846   1.93551   0.25191 
 H                     2.48436   1.40548   1.91797 
 H                     3.84447  -0.69899   1.59462 
 H                     4.26853  -0.16901  -0.07132 
 H                     5.38752   1.89359   0.86964 
 H                     4.96344   1.36359   2.53566 
 H                     7.33939   0.74416   1.97211 
 H                     6.35142  -0.73882   2.22189 
 H                     6.77627  -0.20787   0.55287 
 

 GradGradGradGradGradGradGradGradGradGradGradGradGradGradGradGradGradGrad
 Berny optimization.
 Initialization pass.
                           ----------------------------
                           !    Initial Parameters    !
                           ! (Angstroms and Degrees)  !
 --------------------------                            --------------------------
 ! Name  Definition              Value          Derivative Info.                !
 --------------------------------------------------------------------------------
 ! R1    R(1,2)                  1.3058         estimate D2E/DX2                !
 ! R2    R(1,5)                  1.2662         estimate D2E/DX2                !
 ! R3    R(1,15)                 1.0952         estimate D2E/DX2                !
 ! R4    R(2,3)                  1.3085         estimate D2E/DX2                !
 ! R5    R(2,7)                  1.5075         estimate D2E/DX2                !
 ! R6    R(3,4)                  1.3413         estimate D2E/DX2                !
 ! R7    R(3,16)                 1.0967         estimate D2E/DX2                !
 ! R8    R(4,5)                  1.2656         estimate D2E/DX2                !
 ! R9    R(4,17)                 1.094          estimate D2E/DX2                !
 ! R10   R(5,6)                  1.4685         estimate D2E/DX2                !
 ! R11   R(6,18)                 1.1134         estimate D2E/DX2                !
 ! R12   R(6,19)                 1.114          estimate D2E/DX2                !
 ! R13   R(6,20)                 1.114          estimate D2E/DX2                !
 ! R14   R(7,8)                  1.5356         estimate D2E/DX2                !
 ! R15   R(7,21)                 1.1159         estimate D2E/DX2                !
 ! R16   R(7,22)                 1.1159         estimate D2E/DX2                !
 ! R17   R(8,9)                  1.5379         estimate D2E/DX2                !
 ! R18   R(8,23)                 1.1161         estimate D2E/DX2                !
 ! R19   R(8,24)                 1.1161         estimate D2E/DX2                !
 ! R20   R(9,10)                 1.5375         estimate D2E/DX2                !
 ! R21   R(9,25)                 1.116          estimate D2E/DX2                !
 ! R22   R(9,26)                 1.116          estimate D2E/DX2                !
 ! R23   R(10,11)                1.5374         estimate D2E/DX2                !
 ! R24   R(10,27)                1.116          estimate D2E/DX2                !
 ! R25   R(10,28)                1.116          estimate D2E/DX2                !
 ! R26   R(11,12)                1.5374         estimate D2E/DX2                !
 ! R27   R(11,29)                1.116          estimate D2E/DX2                !
 ! R28   R(11,30)                1.116          estimate D2E/DX2                !
 ! R29   R(12,13)                1.537          estimate D2E/DX2                !
 ! R30   R(12,31)                1.116          estimate D2E/DX2                !
 ! R31   R(12,32)                1.116          estimate D2E/DX2                !
 ! R32   R(13,14)                1.5345         estimate D2E/DX2                !
 ! R33   R(13,33)                1.1163         estimate D2E/DX2                !
 ! R34   R(13,34)                1.1163         estimate D2E/DX2                !
 ! R35   R(14,35)                1.1144         estimate D2E/DX2                !
 ! R36   R(14,36)                1.114          estimate D2E/DX2                !
 ! R37   R(14,37)                1.114          estimate D2E/DX2                !
 ! A1    A(2,1,5)              108.8944         estimate D2E/DX2                !
 ! A2    A(2,1,15)             127.2337         estimate D2E/DX2                !
 ! A3    A(5,1,15)             123.8719         estimate D2E/DX2                !
 ! A4    A(1,2,3)              104.5909         estimate D2E/DX2                !
 ! A5    A(1,2,7)              125.9869         estimate D2E/DX2                !
 ! A6    A(3,2,7)              129.4221         estimate D2E/DX2                !
 ! A7    A(2,3,4)              110.4754         estimate D2E/DX2                !
 ! A8    A(2,3,16)             124.4535         estimate D2E/DX2                !
 ! A9    A(4,3,16)             125.0711         estimate D2E/DX2                !
 ! A10   A(3,4,5)              103.4174         estimate D2E/DX2                !
 ! A11   A(3,4,17)             131.1683         estimate D2E/DX2                !
 ! A12   A(5,4,17)             125.4143         estimate D2E/DX2                !
 ! A13   A(1,5,4)              112.6218         estimate D2E/DX2                !
 ! A14   A(1,5,6)              123.1365         estimate D2E/DX2                !
 ! A15   A(4,5,6)              124.2417         estimate D2E/DX2                !
 ! A16   A(5,6,18)             111.98           estimate D2E/DX2                !
 ! A17   A(5,6,19)             110.2602         estimate D2E/DX2                !
 ! A18   A(5,6,20)             110.2625         estimate D2E/DX2                !
 ! A19   A(18,6,19)            107.7585         estimate D2E/DX2                !
 ! A20   A(18,6,20)            107.7579         estimate D2E/DX2                !
 ! A21   A(19,6,20)            108.7126         estimate D2E/DX2                !
 ! A22   A(2,7,8)              114.9231         estimate D2E/DX2                !
 ! A23   A(2,7,21)             108.1094         estimate D2E/DX2                !
 ! A24   A(2,7,22)             108.111          estimate D2E/DX2                !
 ! A25   A(8,7,21)             109.0795         estimate D2E/DX2                !
 ! A26   A(8,7,22)             109.0807         estimate D2E/DX2                !
 ! A27   A(21,7,22)            107.2717         estimate D2E/DX2                !
 ! A28   A(7,8,9)              111.9913         estimate D2E/DX2                !
 ! A29   A(7,8,23)             109.3606         estimate D2E/DX2                !
 ! A30   A(7,8,24)             109.36           estimate D2E/DX2                !
 ! A31   A(9,8,23)             109.0449         estimate D2E/DX2                !
 ! A32   A(9,8,24)             109.0443         estimate D2E/DX2                !
 ! A33   A(23,8,24)            107.9523         estimate D2E/DX2                !
 ! A34   A(8,9,10)             111.9199         estimate D2E/DX2                !
 ! A35   A(8,9,25)             109.3778         estimate D2E/DX2                !
 ! A36   A(8,9,26)             109.3779         estimate D2E/DX2                !
 ! A37   A(10,9,25)            109.3268         estimate D2E/DX2                !
 ! A38   A(10,9,26)            109.3267         estimate D2E/DX2                !
 ! A39   A(25,9,26)            107.4042         estimate D2E/DX2                !
 ! A40   A(9,10,11)            112.0121         estimate D2E/DX2                !
 ! A41   A(9,10,27)            109.3287         estimate D2E/DX2                !
 ! A42   A(9,10,28)            109.3288         estimate D2E/DX2                !
 ! A43   A(11,10,27)           109.3278         estimate D2E/DX2                !
 ! A44   A(11,10,28)           109.3278         estimate D2E/DX2                !
 ! A45   A(27,10,28)           107.4045         estimate D2E/DX2                !
 ! A46   A(10,11,12)           111.9256         estimate D2E/DX2                !
 ! A47   A(10,11,29)           109.3468         estimate D2E/DX2                !
 ! A48   A(10,11,30)           109.3469         estimate D2E/DX2                !
 ! A49   A(12,11,29)           109.3464         estimate D2E/DX2                !
 ! A50   A(12,11,30)           109.3464         estimate D2E/DX2                !
 ! A51   A(29,11,30)           107.4218         estimate D2E/DX2                !
 ! A52   A(11,12,13)           112.0316         estimate D2E/DX2                !
 ! A53   A(11,12,31)           109.3608         estimate D2E/DX2                !
 ! A54   A(11,12,32)           109.3608         estimate D2E/DX2                !
 ! A55   A(13,12,31)           109.2843         estimate D2E/DX2                !
 ! A56   A(13,12,32)           109.2842         estimate D2E/DX2                !
 ! A57   A(31,12,32)           107.4074         estimate D2E/DX2                !
 ! A58   A(12,13,14)           111.8185         estimate D2E/DX2                !
 ! A59   A(12,13,33)           109.5735         estimate D2E/DX2                !
 ! A60   A(12,13,34)           109.5734         estimate D2E/DX2                !
 ! A61   A(14,13,33)           109.2007         estimate D2E/DX2                !
 ! A62   A(14,13,34)           109.2006         estimate D2E/DX2                !
 ! A63   A(33,13,34)           107.3681         estimate D2E/DX2                !
 ! A64   A(13,14,35)           111.0242         estimate D2E/DX2                !
 ! A65   A(13,14,36)           111.1471         estimate D2E/DX2                !
 ! A66   A(13,14,37)           111.1471         estimate D2E/DX2                !
 ! A67   A(35,14,36)           107.6954         estimate D2E/DX2                !
 ! A68   A(35,14,37)           107.6952         estimate D2E/DX2                !
 ! A69   A(36,14,37)           107.9728         estimate D2E/DX2                !
 ! D1    D(5,1,2,3)             -0.0005         estimate D2E/DX2                !
 ! D2    D(5,1,2,7)            179.999          estimate D2E/DX2                !
 ! D3    D(15,1,2,3)           179.9994         estimate D2E/DX2                !
 ! D4    D(15,1,2,7)            -0.0012         estimate D2E/DX2                !
 ! D5    D(2,1,5,4)             -0.0005         estimate D2E/DX2                !
 ! D6    D(2,1,5,6)            179.9991         estimate D2E/DX2                !
 ! D7    D(15,1,5,4)           179.9996         estimate D2E/DX2                !
 ! D8    D(15,1,5,6)            -0.0007         estimate D2E/DX2                !
 ! D9    D(1,2,3,4)              0.0012         estimate D2E/DX2                !
 ! D10   D(1,2,3,16)          -179.9991         estimate D2E/DX2                !
 ! D11   D(7,2,3,4)           -179.9981         estimate D2E/DX2                !
 ! D12   D(7,2,3,16)             0.0015         estimate D2E/DX2                !
 ! D13   D(1,2,7,8)            179.9913         estimate D2E/DX2                !
 ! D14   D(1,2,7,21)           -57.9224         estimate D2E/DX2                !
 ! D15   D(1,2,7,22)            57.9024         estimate D2E/DX2                !
 ! D16   D(3,2,7,8)             -0.0094         estimate D2E/DX2                !
 ! D17   D(3,2,7,21)           122.0769         estimate D2E/DX2                !
 ! D18   D(3,2,7,22)          -122.0984         estimate D2E/DX2                !
 ! D19   D(2,3,4,5)             -0.0015         estimate D2E/DX2                !
 ! D20   D(2,3,4,17)           179.9993         estimate D2E/DX2                !
 ! D21   D(16,3,4,5)           179.9989         estimate D2E/DX2                !
 ! D22   D(16,3,4,17)           -0.0003         estimate D2E/DX2                !
 ! D23   D(3,4,5,1)              0.0012         estimate D2E/DX2                !
 ! D24   D(3,4,5,6)           -179.9984         estimate D2E/DX2                !
 ! D25   D(17,4,5,1)          -179.9996         estimate D2E/DX2                !
 ! D26   D(17,4,5,6)             0.0008         estimate D2E/DX2                !
 ! D27   D(1,5,6,18)           179.9855         estimate D2E/DX2                !
 ! D28   D(1,5,6,19)           -60.0417         estimate D2E/DX2                !
 ! D29   D(1,5,6,20)            60.0118         estimate D2E/DX2                !
 ! D30   D(4,5,6,18)            -0.0149         estimate D2E/DX2                !
 ! D31   D(4,5,6,19)           119.9579         estimate D2E/DX2                !
 ! D32   D(4,5,6,20)          -119.9886         estimate D2E/DX2                !
 ! D33   D(2,7,8,9)           -179.9985         estimate D2E/DX2                !
 ! D34   D(2,7,8,23)           -59.0068         estimate D2E/DX2                !
 ! D35   D(2,7,8,24)            59.0111         estimate D2E/DX2                !
 ! D36   D(21,7,8,9)            58.4412         estimate D2E/DX2                !
 ! D37   D(21,7,8,23)          179.4329         estimate D2E/DX2                !
 ! D38   D(21,7,8,24)          -62.5493         estimate D2E/DX2                !
 ! D39   D(22,7,8,9)           -58.4352         estimate D2E/DX2                !
 ! D40   D(22,7,8,23)           62.5565         estimate D2E/DX2                !
 ! D41   D(22,7,8,24)         -179.4256         estimate D2E/DX2                !
 ! D42   D(7,8,9,10)           179.9996         estimate D2E/DX2                !
 ! D43   D(7,8,9,25)           -58.6882         estimate D2E/DX2                !
 ! D44   D(7,8,9,26)            58.6873         estimate D2E/DX2                !
 ! D45   D(23,8,9,10)           58.8255         estimate D2E/DX2                !
 ! D46   D(23,8,9,25)         -179.8623         estimate D2E/DX2                !
 ! D47   D(23,8,9,26)          -62.4867         estimate D2E/DX2                !
 ! D48   D(24,8,9,10)          -58.8276         estimate D2E/DX2                !
 ! D49   D(24,8,9,25)           62.4847         estimate D2E/DX2                !
 ! D50   D(24,8,9,26)          179.8602         estimate D2E/DX2                !
 ! D51   D(8,9,10,11)          179.9993         estimate D2E/DX2                !
 ! D52   D(8,9,10,27)          -58.6603         estimate D2E/DX2                !
 ! D53   D(8,9,10,28)           58.6589         estimate D2E/DX2                !
 ! D54   D(25,9,10,11)          58.6576         estimate D2E/DX2                !
 ! D55   D(25,9,10,27)         179.998          estimate D2E/DX2                !
 ! D56   D(25,9,10,28)         -62.6828         estimate D2E/DX2                !
 ! D57   D(26,9,10,11)         -58.6589         estimate D2E/DX2                !
 ! D58   D(26,9,10,27)          62.6814         estimate D2E/DX2                !
 ! D59   D(26,9,10,28)        -179.9993         estimate D2E/DX2                !
 ! D60   D(9,10,11,12)         179.9998         estimate D2E/DX2                !
 ! D61   D(9,10,11,29)         -58.6807         estimate D2E/DX2                !
 ! D62   D(9,10,11,30)          58.6802         estimate D2E/DX2                !
 ! D63   D(27,10,11,12)         58.6589         estimate D2E/DX2                !
 ! D64   D(27,10,11,29)        179.9784         estimate D2E/DX2                !
 ! D65   D(27,10,11,30)        -62.6607         estimate D2E/DX2                !
 ! D66   D(28,10,11,12)        -58.6592         estimate D2E/DX2                !
 ! D67   D(28,10,11,29)         62.6603         estimate D2E/DX2                !
 ! D68   D(28,10,11,30)       -179.9788         estimate D2E/DX2                !
 ! D69   D(10,11,12,13)        179.9995         estimate D2E/DX2                !
 ! D70   D(10,11,12,31)        -58.6803         estimate D2E/DX2                !
 ! D71   D(10,11,12,32)         58.6794         estimate D2E/DX2                !
 ! D72   D(29,11,12,13)         58.6798         estimate D2E/DX2                !
 ! D73   D(29,11,12,31)        180.0            estimate D2E/DX2                !
 ! D74   D(29,11,12,32)        -62.6403         estimate D2E/DX2                !
 ! D75   D(30,11,12,13)        -58.6807         estimate D2E/DX2                !
 ! D76   D(30,11,12,31)         62.6395         estimate D2E/DX2                !
 ! D77   D(30,11,12,32)        179.9992         estimate D2E/DX2                !
 ! D78   D(11,12,13,14)        179.9998         estimate D2E/DX2                !
 ! D79   D(11,12,13,33)        -58.7799         estimate D2E/DX2                !
 ! D80   D(11,12,13,34)         58.7797         estimate D2E/DX2                !
 ! D81   D(31,12,13,14)         58.6355         estimate D2E/DX2                !
 ! D82   D(31,12,13,33)        179.8557         estimate D2E/DX2                !
 ! D83   D(31,12,13,34)        -62.5846         estimate D2E/DX2                !
 ! D84   D(32,12,13,14)        -58.636          estimate D2E/DX2                !
 ! D85   D(32,12,13,33)         62.5842         estimate D2E/DX2                !
 ! D86   D(32,12,13,34)       -179.8561         estimate D2E/DX2                !
 ! D87   D(12,13,14,35)        179.9999         estimate D2E/DX2                !
 ! D88   D(12,13,14,36)        -60.1444         estimate D2E/DX2                !
 ! D89   D(12,13,14,37)         60.1444         estimate D2E/DX2                !
 ! D90   D(33,13,14,35)         58.5641         estimate D2E/DX2                !
 ! D91   D(33,13,14,36)        178.4198         estimate D2E/DX2                !
 ! D92   D(33,13,14,37)        -61.2914         estimate D2E/DX2                !
 ! D93   D(34,13,14,35)        -58.5645         estimate D2E/DX2                !
 ! D94   D(34,13,14,36)         61.2912         estimate D2E/DX2                !
 ! D95   D(34,13,14,37)       -178.42           estimate D2E/DX2                !
 --------------------------------------------------------------------------------
 Trust Radius=3.00D-01 FncErr=1.00D-07 GrdErr=1.00D-06
 Number of steps in this run=    211 maximum allowed number of steps=    222.
 GradGradGradGradGradGradGradGradGradGradGradGradGradGradGradGradGradGrad

                          Input orientation:                          
 ---------------------------------------------------------------------
 Center     Atomic      Atomic             Coordinates (Angstroms)
 Number     Number       Type             X           Y           Z
 ---------------------------------------------------------------------
      1          6           0       -4.613920    0.887476   -1.024808
      2          7           0       -3.417435    0.384886   -0.880320
      3          6           0       -3.525448   -0.849492   -1.300686
      4          6           0       -4.780910   -1.100922   -1.700202
      5          7           0       -5.377574   -0.002502   -1.502400
      6          6           0       -6.798829    0.229361   -1.790233
      7          6           0       -2.210742    1.110826   -0.342228
      8          6           0       -0.925331    0.272980   -0.281588
      9          6           0        0.260695    1.077486    0.276278
     10          6           0        1.546759    0.237090    0.336285
     11          6           0        2.733910    1.039391    0.893717
     12          6           0        4.018754    0.197221    0.952855
     13          6           0        5.207224    0.997006    1.509808
     14          6           0        6.486843    0.151935    1.566698
     15          1           0       -4.938771    1.905209   -0.783532
     16          1           0       -2.700993   -1.572402   -1.320973
     17          1           0       -5.239740   -2.007620   -2.105560
     18          1           0       -7.293385   -0.677794   -2.205103
     19          1           0       -7.339389    0.515221   -0.859018
     20          1           0       -6.912735    1.049389   -2.535660
     21          1           0       -2.031776    2.007620   -0.981690
     22          1           0       -2.455403    1.478194    0.682642
     23          1           0       -1.096058   -0.620246    0.365505
     24          1           0       -0.670466   -0.088295   -1.306409
     25          1           0        0.434754    1.973715   -0.365489
     26          1           0        0.010699    1.443724    1.300368
     27          1           0        1.372742   -0.659149    0.978089
     28          1           0        1.796800   -0.129164   -0.687812
     29          1           0        2.908455    1.935505    0.251913
     30          1           0        2.484356    1.405476    1.917974
     31          1           0        3.844470   -0.698991    1.594624
     32          1           0        4.268530   -0.169012   -0.071315
     33          1           0        5.387523    1.893591    0.869639
     34          1           0        4.963439    1.363590    2.535660
     35          1           0        7.339389    0.744161    1.972111
     36          1           0        6.351418   -0.738821    2.221893
     37          1           0        6.776266   -0.207869    0.552872
 ---------------------------------------------------------------------
                    Distance matrix (angstroms):
                    1          2          3          4          5
     1  C    0.000000
     2  N    1.305776   0.000000
     3  C    2.068318   1.308458   0.000000
     4  C    2.106601   2.176901   1.341274   0.000000
     5  N    1.266224   2.092653   2.046571   1.265567   0.000000
     6  C    2.406827   3.505133   3.481178   2.418627   1.468528
     7  C    2.508200   1.507528   2.547536   3.652627   3.551665
     8  C    3.812567   2.565460   3.009836   4.331924   4.624796
     9  C    5.048841   3.917404   4.531549   5.836927   6.010004
    10  C    6.342676   5.113237   5.439450   6.780631   7.168302
    11  C    7.595684   6.435420   6.896582   8.232975   8.521918
    12  C    8.883167   7.661113   7.942861   9.282132   9.713864
    13  C   10.143527   8.970627   9.357777  10.698985  11.050356
    14  C   11.422953  10.204748  10.462826  11.798498  12.255921
    15  H    1.095227   2.152955   3.138998   3.146749   2.085349
    16  H    3.130176   2.130362   1.096693   2.166140   3.108309
    17  H    3.152976   3.247475   2.219883   1.094048   2.098404
    18  H    3.320045   4.231705   3.878763   2.597401   2.149452
    19  H    2.755765   3.924177   4.074759   3.140911   2.128543
    20  H    2.755620   3.924135   4.074877   3.141099   2.128572
    21  H    2.814969   2.136257   3.239738   4.211535   3.937778
    22  H    2.814876   2.136277   3.239862   4.211623   3.937760
    23  H    4.072045   2.819780   2.954773   4.251627   4.711906
    24  H    4.072132   2.819803   2.954721   4.251616   4.711968
    25  H    5.206124   4.198665   4.952604   6.199839   6.243489
    26  H    5.206050   4.198647   4.952641   6.199852   6.243442
    27  H    6.499521   5.243042   5.405674   6.725759   7.221549
    28  H    6.499573   5.243048   5.405628   6.725735   7.221581
    29  H    7.701591   6.610844   7.180660   8.494526   8.688600
    30  H    7.701546   6.610839   7.180696   8.494546   8.688573
    31  H    8.995702   7.748252   7.919669   9.242002   9.753089
    32  H    8.995734   7.748248   7.919627   9.241975   9.753105
    33  H   10.228884   9.103067   9.574752  10.907255  11.185216
    34  H   10.228852   9.103067   9.574784  10.907277  11.185199
    35  H   12.324109  11.134393  11.458430  12.798119  13.204199
    36  H   11.550954  10.311010  10.486815  11.808585  12.328089
    37  H   11.550982  10.311011  10.486785  11.808565  12.328104
                    6          7          8          9         10
     6  C    0.000000
     7  C    4.891241   0.000000
     8  C    6.064313   1.535560   0.000000
     9  C    7.404503   2.547874   1.537889   0.000000
    10  C    8.612257   3.916964   2.548389   1.537474   0.000000
    11  C    9.936440   5.097278   3.919027   2.549407   1.537448
    12  C   11.160003   6.427949   5.096427   3.918626   2.548040
    13  C   12.474969   7.646516   6.429739   5.098649   3.918371
    14  C   13.703432   8.956085   7.640101   6.425476   5.091719
    15  H    2.698468   2.875402   4.361630   5.370546   6.789603
    16  H    4.500979   2.897930   2.763826   4.283073   4.905524
    17  H    2.744863   4.691362   5.209811   6.741351   7.553668
    18  H    1.113388   5.701116   6.719821   8.142628   9.243582
    19  H    1.114039   5.188915   6.444552   7.704954   8.970492
    20  H    1.114039   5.188801   6.444584   7.704926   8.970559
    21  H    5.151771   1.115876   2.173324   2.775438   4.204491
    22  H    5.151703   1.115875   2.173339   2.775408   4.204474
    23  H    6.155537   2.177158   1.116123   2.175094   2.778554
    24  H    6.155634   2.177151   1.116124   2.175087   2.778562
    25  H    7.576106   2.782763   2.179305   1.115969   2.178281
    26  H    7.576026   2.782758   2.179307   1.115970   2.178280
    27  H    8.673386   4.209205   2.781509   2.178322   1.115992
    28  H    8.673449   4.209204   2.781499   2.178323   1.115992
    29  H   10.065419   5.219126   4.212663   2.783419   2.178520
    30  H   10.065365   5.219126   4.212670   2.783417   2.178521
    31  H   11.207092   6.610025   5.216886   4.211573   2.781931
    32  H   11.207132   6.610019   5.216873   4.211570   2.781923
    33  H   12.583789   7.734014   6.618446   5.225177   4.216625
    34  H   12.583750   7.734016   6.618454   5.225176   4.216628
    35  H   14.639312   9.833393   8.579439   7.286622   6.040497
    36  H   13.782726   9.127239   7.761587   6.646901   5.252872
    37  H   13.782762   9.127238   7.761581   6.646902   5.252870
                   11         12         13         14         15
    11  C    0.000000
    12  C    1.537391   0.000000
    13  C    2.549244   1.536982   0.000000
    14  C    3.914714   2.543682   1.534538   0.000000
    15  H    7.901445   9.282754  10.441526  11.795855   0.000000
    16  H    6.423744   7.311420   8.783796   9.784085   4.170164
    17  H    9.047598   9.996746  11.455903  12.476454   4.141083
    18  H   10.634757  11.777217  13.148032  14.311171   3.773192
    19  H   10.238075  11.506147  12.777361  14.042107   2.775019
    20  H   10.238090  11.506232  12.777400  14.042203   2.774692
    21  H    5.212138   6.605219   7.722177   9.083211   2.915540
    22  H    5.212108   6.605196   7.722150   9.083187   2.915326
    23  H    4.207381   5.212920   6.607291   7.716185   4.739689
    24  H    4.207375   5.212924   6.607284   7.716186   4.739819
    25  H    2.782926   4.211771   5.219882   6.609085   5.390197
    26  H    2.782935   4.211774   5.219894   6.609092   5.390071
    27  H    2.178287   2.781256   4.210561   5.211367   7.036650
    28  H    2.178286   2.781258   4.210556   5.211366   7.036743
    29  H    1.115974   2.178466   2.783419   4.208877   7.915303
    30  H    1.115974   2.178466   2.783425   4.208879   7.915218
    31  H    2.178666   1.115992   2.177314   2.776147   9.464819
    32  H    2.178665   1.115992   2.177314   2.776150   9.464884
    33  H    2.787813   2.181313   1.116328   2.174342  10.457794
    34  H    2.787809   2.181311   1.116328   2.174340  10.457732
    35  H    4.739254   3.516339   2.196311   1.114417  12.637041
    36  H    4.244108   2.815662   2.197576   1.114032  11.978808
    37  H    4.244111   2.815663   2.197577   1.114032  11.978863
                   16         17         18         19         20
    16  H    0.000000
    17  H    2.692625   0.000000
    18  H    4.761520   2.448633   0.000000
    19  H    5.107474   3.511000   1.799263   0.000000
    20  H    5.107644   3.511296   1.799256   1.810662   0.000000
    21  H    3.657803   5.260824   6.032638   5.514804   5.211218
    22  H    3.657994   5.260941   6.032696   5.211272   5.514449
    23  H    2.515278   5.020067   6.709560   6.462811   6.711048
    24  H    2.515119   5.020031   6.709562   6.711105   6.463072
    25  H    4.829162   7.146940   8.374892   7.925155   7.716840
    26  H    4.829256   7.146974   8.374892   7.716791   7.924932
    27  H    4.766029   7.419716   9.232270   8.980831   9.160495
    28  H    4.765918   7.419670   9.232260   9.160485   8.981065
    29  H    6.800389   9.354090  10.814056  10.405272  10.247514
    30  H    6.800469   9.354128  10.814065  10.247449  10.405142
    31  H    7.218493   9.895794  11.768185  11.514051  11.654765
    32  H    7.218407   9.895748  11.768168  11.654717  11.514260
    33  H    9.068406  11.705126  13.299304  12.917525  12.790820
    34  H    9.068472  11.705163  13.299316  12.790745  12.917450
    35  H   10.817585  13.506820  15.283624  14.951061  14.951127
    36  H    9.756685  12.437510  14.345127  14.089103  14.204568
    37  H    9.756623  12.437474  14.345115  14.204507  14.089304
                   21         22         23         24         25
    21  H    0.000000
    22  H    1.797151   0.000000
    23  H    3.097771   2.520287   0.000000
    24  H    2.520212   3.097775   1.805380   0.000000
    25  H    2.542562   3.114021   3.099415   2.521652   0.000000
    26  H    3.114076   2.542525   2.521676   3.099412   1.798831
    27  H    4.747961   4.394339   2.543963   3.117612   3.101128
    28  H    4.394338   4.747944   3.117574   2.543960   2.526096
    29  H    5.092432   5.400522   4.751935   4.396909   2.549871
    30  H    5.400563   5.092401   4.396939   4.751936   3.120572
    31  H    6.963721   6.727574   5.091734   5.401258   4.755162
    32  H    6.727582   6.963693   5.401225   5.091724   4.401779
    33  H    7.647641   7.856145   6.972112   6.735153   5.105084
    34  H    7.856180   7.647616   6.735182   6.972112   5.412754
    35  H    9.906564   9.906537   8.694800   8.694795   7.392575
    36  H    9.385298   9.211110   7.676271   7.885363   7.004235
    37  H    9.211128   9.385274   7.885344   7.676265   6.768860
                   26         27         28         29         30
    26  H    0.000000
    27  H    2.526084   0.000000
    28  H    3.101128   1.798871   0.000000
    29  H    3.120592   3.101286   2.526206   0.000000
    30  H    2.549878   2.526212   3.101286   1.799041   0.000000
    31  H    4.401774   2.547772   3.118841   3.101543   2.526509
    32  H    4.755161   3.118825   2.547765   2.526514   3.101542
    33  H    5.412776   4.758856   4.405733   2.555214   3.125003
    34  H    5.105096   4.405747   4.758854   3.124987   2.555219
    35  H    7.392586   6.209528   6.209523   4.900159   4.900165
    36  H    6.768857   5.132310   5.438990   4.784019   4.432217
    37  H    7.004242   5.438983   5.132307   4.432222   4.784023
                   31         32         33         34         35
    31  H    0.000000
    32  H    1.798904   0.000000
    33  H    3.102918   2.528215   0.000000
    34  H    2.528217   3.102916   1.798993   0.000000
    35  H    3.799953   3.799954   2.519209   2.519210   0.000000
    36  H    2.584539   3.149906   3.112439   2.538714   1.799365
    37  H    3.149901   2.584542   2.538717   3.112438   1.799363
                   36         37
    36  H    0.000000
    37  H    1.802231   0.000000
 Stoichiometry    C12H23N2(1+)
 Framework group  C1[X(C12H23N2)]
 Deg. of freedom   105
 Full point group                 C1      NOp   1
 Largest Abelian subgroup         C1      NOp   1
 Largest concise Abelian subgroup C1      NOp   1
                         Standard orientation:                         
 ---------------------------------------------------------------------
 Center     Atomic      Atomic             Coordinates (Angstroms)
 Number     Number       Type             X           Y           Z
 ---------------------------------------------------------------------
      1          6           0        4.022792   -0.769340    0.000052
      2          7           0        2.856363   -0.182404   -0.000059
      3          6           0        3.131090    1.096888   -0.000113
      4          6           0        4.458128    1.291789   -0.000062
      5          7           0        4.927559    0.116504    0.000053
      6          6           0        6.361449   -0.200566    0.000182
      7          6           0        1.516772   -0.873877   -0.000122
      8          6           0        0.303030    0.066748   -0.000043
      9          6           0       -1.025672   -0.707624   -0.000076
     10          6           0       -2.239752    0.235687    0.000015
     11          6           0       -3.569317   -0.536324   -0.000035
     12          6           0       -4.781907    0.408767    0.000061
     13          6           0       -6.112495   -0.360551   -0.000002
     14          6           0       -7.319317    0.587281    0.000099
     15          1           0        4.222807   -1.846148    0.000135
     16          1           0        2.377200    1.893371   -0.000194
     17          1           0        5.050992    2.211275   -0.000092
     18          1           0        6.991261    0.717567   -0.000100
     19          1           0        6.625373   -0.793380    0.905720
     20          1           0        6.625448   -0.793977   -0.904942
     21          1           0        1.466976   -1.533518   -0.898774
     22          1           0        1.466963   -1.533721    0.898378
     23          1           0        0.342715    0.721914    0.902682
     24          1           0        0.342689    0.722015   -0.902698
     25          1           0       -1.070107   -1.366699   -0.899539
     26          1           0       -1.070078   -1.366831    0.899292
     27          1           0       -2.195367    0.894767    0.899505
     28          1           0       -2.195387    0.894917   -0.899366
     29          1           0       -3.614206   -1.195220   -0.899613
     30          1           0       -3.614186   -1.195376    0.899428
     31          1           0       -4.737256    1.067798    0.899574
     32          1           0       -4.737268    1.067964   -0.899331
     33          1           0       -6.163380   -1.019636   -0.899561
     34          1           0       -6.163365   -1.019807    0.899431
     35          1           0       -8.276259    0.016152    0.000050
     36          1           0       -7.315903    1.242211    0.901277
     37          1           0       -7.315918    1.242385   -0.900954
 ---------------------------------------------------------------------
 Rotational constants (GHZ):      4.2201413      0.1384191      0.1350772
 Standard basis: 6-311++G(d,p) (5D, 7F)
 There are   483 symmetry adapted cartesian basis functions of A   symmetry.
 There are   469 symmetry adapted basis functions of A   symmetry.
   469 basis functions,   711 primitive gaussians,   483 cartesian basis functions
    54 alpha electrons       54 beta electrons
       nuclear repulsion energy       851.5294009154 Hartrees.
 NAtoms=   37 NActive=   37 NUniq=   37 SFac= 1.00D+00 NAtFMM=   60 NAOKFM=F Big=F
 Integral buffers will be    131072 words long.
 Raffenetti 2 integral format.
 Two-electron integral symmetry is turned on.
 One-electron integrals computed using PRISM.
 NBasis=   469 RedAO= T EigKep=  1.03D-06  NBF=   469
 NBsUse=   469 1.00D-06 EigRej= -1.00D+00 NBFU=   469
 ExpMin= 3.60D-02 ExpMax= 6.29D+03 ExpMxC= 9.49D+02 IAcc=3 IRadAn=         5 AccDes= 0.00D+00
 Harris functional with IExCor=  402 and IRadAn=       5 diagonalized for initial guess.
 HarFok:  IExCor=  402 AccDes= 0.00D+00 IRadAn=         5 IDoV= 1 UseB2=F ITyADJ=14
 ICtDFT=  3500011 ScaDFX=  1.000000  1.000000  1.000000  1.000000
 FoFCou: FMM=F IPFlag=           0 FMFlag=      100000 FMFlg1=           0
         NFxFlg=           0 DoJE=T BraDBF=F KetDBF=T FulRan=T
         wScrn=  0.000000 ICntrl=     500 IOpCl=  0 I1Cent=   200000004 NGrid=           0
         NMat0=    1 NMatS0=      1 NMatT0=    0 NMatD0=    1 NMtDS0=    0 NMtDT0=    0
 Petite list used in FoFCou.
 Keep R1 ints in memory in canonical form, NReq=6131149647.
 Requested convergence on RMS density matrix=1.00D-08 within 128 cycles.
 Requested convergence on MAX density matrix=1.00D-06.
 Requested convergence on             energy=1.00D-06.
 No special actions if energy rises.
 SCF Done:  E(RB3LYP) =  -580.545882730     A.U. after   13 cycles
            NFock= 13  Conv=0.81D-08     -V/T= 2.0043

 **********************************************************************

            Population analysis using the SCF density.

 **********************************************************************

 Orbital symmetries:
       Occupied  (A) (A) (A) (A) (A) (A) (A) (A) (A) (A) (A) (A)
                 (A) (A) (A) (A) (A) (A) (A) (A) (A) (A) (A) (A)
                 (A) (A) (A) (A) (A) (A) (A) (A) (A) (A) (A) (A)
                 (A) (A) (A) (A) (A) (A) (A) (A) (A) (A) (A) (A)
                 (A) (A) (A) (A) (A) (A)
       Virtual   (A) (A) (A) (A) (A) (A) (A) (A) (A) (A) (A) (A)
                 (A) (A) (A) (A) (A) (A) (A) (A) (A) (A) (A) (A)
                 (A) (A) (A) (A) (A) (A) (A) (A) (A) (A) (A) (A)
                 (A) (A) (A) (A) (A) (A) (A) (A) (A) (A) (A) (A)
                 (A) (A) (A) (A) (A) (A) (A) (A) (A) (A) (A) (A)
                 (A) (A) (A) (A) (A) (A) (A) (A) (A) (A) (A) (A)
                 (A) (A) (A) (A) (A) (A) (A) (A) (A) (A) (A) (A)
                 (A) (A) (A) (A) (A) (A) (A) (A) (A) (A) (A) (A)
                 (A) (A) (A) (A) (A) (A) (A) (A) (A) (A) (A) (A)
                 (A) (A) (A) (A) (A) (A) (A) (A) (A) (A) (A) (A)
                 (A) (A) (A) (A) (A) (A) (A) (A) (A) (A) (A) (A)
                 (A) (A) (A) (A) (A) (A) (A) (A) (A) (A) (A) (A)
                 (A) (A) (A) (A) (A) (A) (A) (A) (A) (A) (A) (A)
                 (A) (A) (A) (A) (A) (A) (A) (A) (A) (A) (A) (A)
                 (A) (A) (A) (A) (A) (A) (A) (A) (A) (A) (A) (A)
                 (A) (A) (A) (A) (A) (A) (A) (A) (A) (A) (A) (A)
                 (A) (A) (A) (A) (A) (A) (A) (A) (A) (A) (A) (A)
                 (A) (A) (A) (A) (A) (A) (A) (A) (A) (A) (A) (A)
                 (A) (A) (A) (A) (A) (A) (A) (A) (A) (A) (A) (A)
                 (A) (A) (A) (A) (A) (A) (A) (A) (A) (A) (A) (A)
                 (A) (A) (A) (A) (A) (A) (A) (A) (A) (A) (A) (A)
                 (A) (A) (A) (A) (A) (A) (A) (A) (A) (A) (A) (A)
                 (A) (A) (A) (A) (A) (A) (A) (A) (A) (A) (A) (A)
                 (A) (A) (A) (A) (A) (A) (A) (A) (A) (A) (A) (A)
                 (A) (A) (A) (A) (A) (A) (A) (A) (A) (A) (A) (A)
                 (A) (A) (A) (A) (A) (A) (A) (A) (A) (A) (A) (A)
                 (A) (A) (A) (A) (A) (A) (A) (A) (A) (A) (A) (A)
                 (A) (A) (A) (A) (A) (A) (A) (A) (A) (A) (A) (A)
                 (A) (A) (A) (A) (A) (A) (A) (A) (A) (A) (A) (A)
                 (A) (A) (A) (A) (A) (A) (A) (A) (A) (A) (A) (A)
                 (A) (A) (A) (A) (A) (A) (A) (A) (A) (A) (A) (A)
                 (A) (A) (A) (A) (A) (A) (A) (A) (A) (A) (A) (A)
                 (A) (A) (A) (A) (A) (A) (A) (A) (A) (A) (A) (A)
                 (A) (A) (A) (A) (A) (A) (A) (A) (A) (A) (A) (A)
                 (A) (A) (A) (A) (A) (A) (A)
 The electronic state is 1-A.
 Alpha  occ. eigenvalues --  -14.56909 -14.56705 -10.41698 -10.38315 -10.38126
 Alpha  occ. eigenvalues --  -10.37294 -10.37121 -10.31455 -10.28698 -10.26524
 Alpha  occ. eigenvalues --  -10.24926 -10.23804 -10.23154 -10.21914  -1.28957
 Alpha  occ. eigenvalues --   -1.14413  -0.97808  -0.95197  -0.91154  -0.88324
 Alpha  occ. eigenvalues --   -0.85747  -0.83241  -0.80068  -0.78063  -0.75439
 Alpha  occ. eigenvalues --   -0.72497  -0.70270  -0.69430  -0.66830  -0.64203
 Alpha  occ. eigenvalues --   -0.63875  -0.63702  -0.63036  -0.62755  -0.59915
 Alpha  occ. eigenvalues --   -0.58858  -0.56468  -0.56245  -0.54150  -0.53562
 Alpha  occ. eigenvalues --   -0.51464  -0.50567  -0.48853  -0.48295  -0.46706
 Alpha  occ. eigenvalues --   -0.46271  -0.45607  -0.43782  -0.42584  -0.42576
 Alpha  occ. eigenvalues --   -0.41125  -0.39896  -0.39045  -0.38472
 Alpha virt. eigenvalues --   -0.17640  -0.13527  -0.13135  -0.11628  -0.10983
 Alpha virt. eigenvalues --   -0.10651  -0.09105  -0.09097  -0.08876  -0.07447
 Alpha virt. eigenvalues --   -0.07131  -0.06658  -0.06138  -0.06083  -0.05410
 Alpha virt. eigenvalues --   -0.05139  -0.04845  -0.04229  -0.03627  -0.03587
 Alpha virt. eigenvalues --   -0.02833  -0.02688  -0.01900  -0.01568  -0.01564
 Alpha virt. eigenvalues --   -0.01206  -0.00390  -0.00077   0.00049   0.00351
 Alpha virt. eigenvalues --    0.00536   0.00930   0.01160   0.01462   0.01709
 Alpha virt. eigenvalues --    0.01922   0.02295   0.02701   0.02926   0.03120
 Alpha virt. eigenvalues --    0.03155   0.03243   0.04037   0.04076   0.04717
 Alpha virt. eigenvalues --    0.04895   0.04970   0.05150   0.05452   0.05835
 Alpha virt. eigenvalues --    0.06013   0.06230   0.06738   0.07013   0.07051
 Alpha virt. eigenvalues --    0.07242   0.07244   0.07743   0.08325   0.08386
 Alpha virt. eigenvalues --    0.08770   0.08945   0.08987   0.09433   0.09750
 Alpha virt. eigenvalues --    0.10116   0.10142   0.10772   0.10929   0.11424
 Alpha virt. eigenvalues --    0.11905   0.12314   0.12353   0.12896   0.12941
 Alpha virt. eigenvalues --    0.13128   0.13198   0.13626   0.13905   0.14669
 Alpha virt. eigenvalues --    0.14866   0.15131   0.15725   0.15876   0.16094
 Alpha virt. eigenvalues --    0.16267   0.16594   0.17150   0.17401   0.18035
 Alpha virt. eigenvalues --    0.18441   0.19000   0.19715   0.19812   0.20541
 Alpha virt. eigenvalues --    0.20731   0.21389   0.21568   0.22617   0.23078
 Alpha virt. eigenvalues --    0.23716   0.24120   0.24287   0.25223   0.25550
 Alpha virt. eigenvalues --    0.25712   0.26893   0.27264   0.28245   0.29111
 Alpha virt. eigenvalues --    0.29337   0.29816   0.30402   0.31031   0.31674
 Alpha virt. eigenvalues --    0.31944   0.32745   0.34158   0.35255   0.35688
 Alpha virt. eigenvalues --    0.35751   0.36515   0.38235   0.39435   0.40285
 Alpha virt. eigenvalues --    0.40304   0.40673   0.41462   0.42375   0.43331
 Alpha virt. eigenvalues --    0.44317   0.44807   0.46387   0.47334   0.47473
 Alpha virt. eigenvalues --    0.48109   0.48520   0.48727   0.49101   0.50293
 Alpha virt. eigenvalues --    0.51532   0.51827   0.52469   0.52918   0.54228
 Alpha virt. eigenvalues --    0.54801   0.56628   0.56721   0.57101   0.58045
 Alpha virt. eigenvalues --    0.58524   0.58655   0.58935   0.60111   0.60351
 Alpha virt. eigenvalues --    0.60832   0.61372   0.61805   0.62191   0.62601
 Alpha virt. eigenvalues --    0.62783   0.63544   0.64115   0.64587   0.65172
 Alpha virt. eigenvalues --    0.65950   0.66999   0.67925   0.68109   0.68802
 Alpha virt. eigenvalues --    0.68978   0.69227   0.70192   0.71177   0.72303
 Alpha virt. eigenvalues --    0.72379   0.74248   0.75014   0.75861   0.76128
 Alpha virt. eigenvalues --    0.80631   0.82002   0.83769   0.83830   0.84998
 Alpha virt. eigenvalues --    0.88476   0.88784   0.89019   0.91663   0.92757
 Alpha virt. eigenvalues --    0.93058   0.94159   0.94496   0.95405   0.96145
 Alpha virt. eigenvalues --    0.97312   0.99114   1.00109   1.00327   1.02442
 Alpha virt. eigenvalues --    1.03407   1.10142   1.11433   1.12618   1.14388
 Alpha virt. eigenvalues --    1.15546   1.16573   1.17398   1.19177   1.19257
 Alpha virt. eigenvalues --    1.20222   1.20354   1.24151   1.25040   1.26589
 Alpha virt. eigenvalues --    1.26691   1.30945   1.32634   1.35137   1.37345
 Alpha virt. eigenvalues --    1.39056   1.39207   1.40046   1.41082   1.41958
 Alpha virt. eigenvalues --    1.42840   1.43114   1.46045   1.46631   1.47604
 Alpha virt. eigenvalues --    1.47710   1.48816   1.49221   1.49261   1.51091
 Alpha virt. eigenvalues --    1.51386   1.52027   1.52806   1.53300   1.53912
 Alpha virt. eigenvalues --    1.54183   1.54309   1.54749   1.55049   1.56762
 Alpha virt. eigenvalues --    1.57177   1.58771   1.59137   1.59573   1.61012
 Alpha virt. eigenvalues --    1.61186   1.61650   1.63577   1.64414   1.65105
 Alpha virt. eigenvalues --    1.65407   1.66243   1.67826   1.67839   1.68114
 Alpha virt. eigenvalues --    1.71415   1.72597   1.74100   1.74314   1.75622
 Alpha virt. eigenvalues --    1.77079   1.77906   1.78121   1.80641   1.81548
 Alpha virt. eigenvalues --    1.82904   1.83515   1.86411   1.87534   1.88573
 Alpha virt. eigenvalues --    1.91592   1.94818   1.97201   1.97631   1.98574
 Alpha virt. eigenvalues --    1.99423   2.01503   2.03493   2.04959   2.06812
 Alpha virt. eigenvalues --    2.07189   2.07599   2.08967   2.10158   2.11987
 Alpha virt. eigenvalues --    2.14002   2.14311   2.15176   2.16335   2.17222
 Alpha virt. eigenvalues --    2.19473   2.20932   2.21884   2.23118   2.24711
 Alpha virt. eigenvalues --    2.25655   2.25831   2.26477   2.28197   2.30005
 Alpha virt. eigenvalues --    2.31902   2.32268   2.34037   2.34476   2.36119
 Alpha virt. eigenvalues --    2.37604   2.38376   2.39075   2.40326   2.41004
 Alpha virt. eigenvalues --    2.43367   2.43549   2.44929   2.45993   2.46521
 Alpha virt. eigenvalues --    2.47535   2.48585   2.49007   2.49825   2.50332
 Alpha virt. eigenvalues --    2.51385   2.51889   2.52810   2.53389   2.55603
 Alpha virt. eigenvalues --    2.56919   2.57256   2.58600   2.60835   2.61977
 Alpha virt. eigenvalues --    2.62036   2.65105   2.65745   2.66362   2.66384
 Alpha virt. eigenvalues --    2.67844   2.68044   2.69009   2.70316   2.71274
 Alpha virt. eigenvalues --    2.76233   2.76244   2.78375   2.79400   2.80384
 Alpha virt. eigenvalues --    2.82553   2.84359   2.85867   2.86513   2.87222
 Alpha virt. eigenvalues --    2.88860   2.90684   2.91556   2.93448   2.94155
 Alpha virt. eigenvalues --    2.95659   2.99505   3.01461   3.05693   3.14889
 Alpha virt. eigenvalues --    3.16130   3.26232   3.31246   3.33893   3.38778
 Alpha virt. eigenvalues --    3.43987   3.48405   3.54542   3.54577   3.56365
 Alpha virt. eigenvalues --    3.56859   3.62705   3.63277   3.66239   3.68579
 Alpha virt. eigenvalues --    3.69730   3.71300   3.72079   3.72128   3.73898
 Alpha virt. eigenvalues --    3.76252   3.77552   3.79700   3.83451   3.90155
 Alpha virt. eigenvalues --    3.95162   3.98594   4.00850   4.06740   4.14236
 Alpha virt. eigenvalues --    4.21512   4.26252   4.66555   4.79075   4.82786
 Alpha virt. eigenvalues --    5.19248  23.67609  23.70253  23.73604  23.74666
 Alpha virt. eigenvalues --   23.75071  23.77185  23.78218  23.78932  23.80288
 Alpha virt. eigenvalues --   23.86981  23.88300  24.13615  35.39337  35.60335
          Condensed to atoms (all electrons):
               1          2          3          4          5          6
     1  C    5.439941   0.423881   0.184502  -0.222265   0.478148  -0.138463
     2  N    0.423881   6.652172   0.110638   0.061189  -0.344280  -0.045990
     3  C    0.184502   0.110638   8.603366  -3.562312   0.107792  -0.053723
     4  C   -0.222265   0.061189  -3.562312  10.380010   0.189243   0.009743
     5  N    0.478148  -0.344280   0.107792   0.189243   6.561565   0.306549
     6  C   -0.138463  -0.045990  -0.053723   0.009743   0.306549   5.205805
     7  C   -0.122213   0.068929   0.083918   0.067952  -0.050245  -0.088216
     8  C   -0.039662   0.159578   0.257225  -0.295592  -0.175258  -0.034794
     9  C   -0.396702  -0.019257  -0.298647  -0.573375  -0.052956  -0.030250
    10  C   -0.057999  -0.033631  -0.159782  -0.012174  -0.009136  -0.002252
    11  C   -0.020861  -0.008695  -0.007245   0.000510  -0.000599  -0.000356
    12  C   -0.002486  -0.003726  -0.011493  -0.001228  -0.000075  -0.000033
    13  C   -0.000265  -0.000130  -0.000048   0.000039   0.000000  -0.000001
    14  C   -0.000001  -0.000012  -0.000009   0.000005   0.000000   0.000000
    15  H    0.427995  -0.051267   0.021755   0.003028  -0.059564  -0.027560
    16  H    0.018272  -0.088615   0.557911  -0.123769   0.047816   0.008256
    17  H    0.025498   0.044814   0.037935   0.344858  -0.087236  -0.042899
    18  H    0.020364  -0.010946   0.066641  -0.047767  -0.042983   0.391274
    19  H   -0.015406   0.001878  -0.003784  -0.007572  -0.022502   0.404148
    20  H   -0.015340   0.001894  -0.003800  -0.007552  -0.022544   0.404106
    21  H    0.026180  -0.025205   0.022745  -0.020920   0.008342   0.002483
    22  H    0.026272  -0.025242   0.022724  -0.020842   0.008354   0.002489
    23  H    0.010426   0.000391   0.017144   0.006243   0.002378   0.000326
    24  H    0.010466   0.000382   0.017191   0.006351   0.002391   0.000328
    25  H    0.002034  -0.000399   0.005063   0.004358  -0.000172  -0.000009
    26  H    0.002027  -0.000397   0.005065   0.004360  -0.000170  -0.000009
    27  H    0.000279  -0.000720   0.001395  -0.000309   0.000040   0.000028
    28  H    0.000273  -0.000721   0.001390  -0.000315   0.000039   0.000028
    29  H    0.000023   0.000285   0.000316   0.000016   0.000019   0.000004
    30  H    0.000023   0.000285   0.000314   0.000015   0.000019   0.000004
    31  H   -0.000002   0.000005  -0.000089   0.000022  -0.000002  -0.000001
    32  H   -0.000001   0.000005  -0.000089   0.000022  -0.000002  -0.000001
    33  H    0.000000  -0.000007  -0.000016  -0.000003   0.000000   0.000000
    34  H    0.000000  -0.000007  -0.000016  -0.000003   0.000000   0.000000
    35  H   -0.000001   0.000000  -0.000001   0.000000   0.000000   0.000000
    36  H    0.000000   0.000000   0.000001   0.000000   0.000000   0.000000
    37  H    0.000000   0.000000   0.000001   0.000000   0.000000   0.000000
               7          8          9         10         11         12
     1  C   -0.122213  -0.039662  -0.396702  -0.057999  -0.020861  -0.002486
     2  N    0.068929   0.159578  -0.019257  -0.033631  -0.008695  -0.003726
     3  C    0.083918   0.257225  -0.298647  -0.159782  -0.007245  -0.011493
     4  C    0.067952  -0.295592  -0.573375  -0.012174   0.000510  -0.001228
     5  N   -0.050245  -0.175258  -0.052956  -0.009136  -0.000599  -0.000075
     6  C   -0.088216  -0.034794  -0.030250  -0.002252  -0.000356  -0.000033
     7  C    7.795320  -0.421703  -0.684789  -0.590370  -0.362147  -0.078290
     8  C   -0.421703   9.613222  -2.753042  -0.762802  -0.283360  -0.593667
     9  C   -0.684789  -2.753042  11.591514   0.284119  -0.069221  -0.123838
    10  C   -0.590370  -0.762802   0.284119   7.255033  -0.185678   0.102870
    11  C   -0.362147  -0.283360  -0.069221  -0.185678   6.816264  -0.213383
    12  C   -0.078290  -0.593667  -0.123838   0.102870  -0.213383   6.707047
    13  C   -0.016072  -0.035027  -0.194755  -0.144042   0.107059  -0.039921
    14  C   -0.000693  -0.007260  -0.006480  -0.071653  -0.044044   0.108437
    15  H    0.052793  -0.006556   0.004053  -0.000639   0.000382  -0.000010
    16  H    0.001751  -0.032045  -0.024229  -0.014592  -0.001091   0.000421
    17  H    0.007473   0.007131   0.005086   0.000576  -0.000075   0.000016
    18  H   -0.003034  -0.000291  -0.001455  -0.000107  -0.000012  -0.000002
    19  H   -0.001106  -0.002004   0.000187  -0.000051  -0.000008   0.000000
    20  H   -0.001105  -0.002002   0.000185  -0.000051  -0.000008   0.000000
    21  H    0.396193  -0.042939  -0.042451  -0.022459  -0.007622  -0.000864
    22  H    0.396432  -0.042996  -0.042700  -0.022489  -0.007639  -0.000868
    23  H   -0.042186   0.521641  -0.176360  -0.014794   0.000502  -0.008080
    24  H   -0.041882   0.521801  -0.176909  -0.014870   0.000464  -0.008097
    25  H    0.006127  -0.009980   0.369818  -0.084834   0.024879   0.003691
    26  H    0.006040  -0.009975   0.369723  -0.084794   0.024961   0.003706
    27  H   -0.001733  -0.005450  -0.071420   0.481906  -0.098179   0.023034
    28  H   -0.001805  -0.005613  -0.071324   0.481932  -0.098117   0.023096
    29  H    0.000502   0.009611  -0.008477  -0.068412   0.468124  -0.094208
    30  H    0.000494   0.009553  -0.008422  -0.068397   0.468102  -0.094174
    31  H    0.000572  -0.002362  -0.001726  -0.016835  -0.071972   0.458608
    32  H    0.000574  -0.002372  -0.001705  -0.016829  -0.071985   0.458614
    33  H    0.000184  -0.000985   0.005727   0.001216  -0.005193  -0.048702
    34  H    0.000184  -0.000985   0.005728   0.001214  -0.005190  -0.048704
    35  H   -0.000055  -0.000287  -0.000935   0.002533   0.009409   0.037137
    36  H   -0.000033   0.000045  -0.000993  -0.001022  -0.009350  -0.028953
    37  H   -0.000033   0.000045  -0.000993  -0.001023  -0.009350  -0.028956
              13         14         15         16         17         18
     1  C   -0.000265  -0.000001   0.427995   0.018272   0.025498   0.020364
     2  N   -0.000130  -0.000012  -0.051267  -0.088615   0.044814  -0.010946
     3  C   -0.000048  -0.000009   0.021755   0.557911   0.037935   0.066641
     4  C    0.000039   0.000005   0.003028  -0.123769   0.344858  -0.047767
     5  N    0.000000   0.000000  -0.059564   0.047816  -0.087236  -0.042983
     6  C   -0.000001   0.000000  -0.027560   0.008256  -0.042899   0.391274
     7  C   -0.016072  -0.000693   0.052793   0.001751   0.007473  -0.003034
     8  C   -0.035027  -0.007260  -0.006556  -0.032045   0.007131  -0.000291
     9  C   -0.194755  -0.006480   0.004053  -0.024229   0.005086  -0.001455
    10  C   -0.144042  -0.071653  -0.000639  -0.014592   0.000576  -0.000107
    11  C    0.107059  -0.044044   0.000382  -0.001091  -0.000075  -0.000012
    12  C   -0.039921   0.108437  -0.000010   0.000421   0.000016  -0.000002
    13  C    5.839165   0.097772   0.000000   0.000029  -0.000001   0.000000
    14  C    0.097772   5.481153   0.000000   0.000005   0.000000   0.000000
    15  H    0.000000   0.000000   0.440152  -0.000210   0.001069   0.000090
    16  H    0.000029   0.000005  -0.000210   0.453185  -0.008717   0.001668
    17  H   -0.000001   0.000000   0.001069  -0.008717   0.447741  -0.006269
    18  H    0.000000   0.000000   0.000090   0.001668  -0.006269   0.470246
    19  H    0.000000   0.000000  -0.001097  -0.000122   0.000981  -0.017232
    20  H    0.000000   0.000000  -0.001100  -0.000121   0.000980  -0.017239
    21  H   -0.000062  -0.000030  -0.002769   0.002077  -0.000091   0.000062
    22  H   -0.000062  -0.000030  -0.002767   0.002074  -0.000091   0.000062
    23  H    0.000629   0.000045  -0.000162   0.000684   0.000045  -0.000049
    24  H    0.000629   0.000045  -0.000161   0.000680   0.000045  -0.000049
    25  H   -0.000936   0.000626   0.000226   0.000512  -0.000040   0.000005
    26  H   -0.000932   0.000627   0.000226   0.000512  -0.000040   0.000005
    27  H   -0.006564  -0.002013  -0.000016   0.000809  -0.000031   0.000003
    28  H   -0.006560  -0.002011  -0.000016   0.000810  -0.000031   0.000003
    29  H    0.011785  -0.003522  -0.000013   0.000007  -0.000001   0.000000
    30  H    0.011779  -0.003525  -0.000013   0.000007  -0.000001   0.000000
    31  H   -0.061668   0.014397   0.000000  -0.000023   0.000001   0.000000
    32  H   -0.061678   0.014395   0.000000  -0.000023   0.000001   0.000000
    33  H    0.412960  -0.051993   0.000000  -0.000001   0.000000   0.000000
    34  H    0.412958  -0.051993   0.000000  -0.000001   0.000000   0.000000
    35  H   -0.047762   0.361143   0.000000   0.000000   0.000000   0.000000
    36  H   -0.019008   0.403924   0.000000   0.000000   0.000000   0.000000
    37  H   -0.019007   0.403926   0.000000   0.000000   0.000000   0.000000
              19         20         21         22         23         24
     1  C   -0.015406  -0.015340   0.026180   0.026272   0.010426   0.010466
     2  N    0.001878   0.001894  -0.025205  -0.025242   0.000391   0.000382
     3  C   -0.003784  -0.003800   0.022745   0.022724   0.017144   0.017191
     4  C   -0.007572  -0.007552  -0.020920  -0.020842   0.006243   0.006351
     5  N   -0.022502  -0.022544   0.008342   0.008354   0.002378   0.002391
     6  C    0.404148   0.404106   0.002483   0.002489   0.000326   0.000328
     7  C   -0.001106  -0.001105   0.396193   0.396432  -0.042186  -0.041882
     8  C   -0.002004  -0.002002  -0.042939  -0.042996   0.521641   0.521801
     9  C    0.000187   0.000185  -0.042451  -0.042700  -0.176360  -0.176909
    10  C   -0.000051  -0.000051  -0.022459  -0.022489  -0.014794  -0.014870
    11  C   -0.000008  -0.000008  -0.007622  -0.007639   0.000502   0.000464
    12  C    0.000000   0.000000  -0.000864  -0.000868  -0.008080  -0.008097
    13  C    0.000000   0.000000  -0.000062  -0.000062   0.000629   0.000629
    14  C    0.000000   0.000000  -0.000030  -0.000030   0.000045   0.000045
    15  H   -0.001097  -0.001100  -0.002769  -0.002767  -0.000162  -0.000161
    16  H   -0.000122  -0.000121   0.002077   0.002074   0.000684   0.000680
    17  H    0.000981   0.000980  -0.000091  -0.000091   0.000045   0.000045
    18  H   -0.017232  -0.017239   0.000062   0.000062  -0.000049  -0.000049
    19  H    0.492858  -0.046121   0.000326  -0.000436   0.000026   0.000004
    20  H   -0.046121   0.492897  -0.000436   0.000326   0.000004   0.000026
    21  H    0.000326  -0.000436   0.543456  -0.073106   0.018274  -0.023178
    22  H   -0.000436   0.000326  -0.073106   0.543449  -0.023161   0.018276
    23  H    0.000026   0.000004   0.018274  -0.023161   0.604792  -0.097739
    24  H    0.000004   0.000026  -0.023178   0.018276  -0.097739   0.604840
    25  H    0.000017  -0.000033  -0.004318   0.005873   0.021119  -0.031361
    26  H   -0.000033   0.000017   0.005871  -0.004314  -0.031365   0.021125
    27  H    0.000006  -0.000006  -0.002385   0.004060   0.004948  -0.000195
    28  H   -0.000006   0.000006   0.004061  -0.002386  -0.000194   0.004939
    29  H    0.000000   0.000000  -0.000521   0.000840  -0.001228   0.003482
    30  H    0.000000   0.000000   0.000840  -0.000521   0.003482  -0.001229
    31  H    0.000000   0.000000  -0.000037  -0.000042  -0.000916   0.001017
    32  H    0.000000   0.000000  -0.000042  -0.000037   0.001016  -0.000916
    33  H    0.000000   0.000000   0.000033  -0.000044  -0.000074  -0.000004
    34  H    0.000000   0.000000  -0.000044   0.000033  -0.000004  -0.000073
    35  H    0.000000   0.000000   0.000000   0.000000   0.000000   0.000000
    36  H    0.000000   0.000000   0.000005  -0.000005   0.000002  -0.000011
    37  H    0.000000   0.000000  -0.000005   0.000005  -0.000011   0.000002
              25         26         27         28         29         30
     1  C    0.002034   0.002027   0.000279   0.000273   0.000023   0.000023
     2  N   -0.000399  -0.000397  -0.000720  -0.000721   0.000285   0.000285
     3  C    0.005063   0.005065   0.001395   0.001390   0.000316   0.000314
     4  C    0.004358   0.004360  -0.000309  -0.000315   0.000016   0.000015
     5  N   -0.000172  -0.000170   0.000040   0.000039   0.000019   0.000019
     6  C   -0.000009  -0.000009   0.000028   0.000028   0.000004   0.000004
     7  C    0.006127   0.006040  -0.001733  -0.001805   0.000502   0.000494
     8  C   -0.009980  -0.009975  -0.005450  -0.005613   0.009611   0.009553
     9  C    0.369818   0.369723  -0.071420  -0.071324  -0.008477  -0.008422
    10  C   -0.084834  -0.084794   0.481906   0.481932  -0.068412  -0.068397
    11  C    0.024879   0.024961  -0.098179  -0.098117   0.468124   0.468102
    12  C    0.003691   0.003706   0.023034   0.023096  -0.094208  -0.094174
    13  C   -0.000936  -0.000932  -0.006564  -0.006560   0.011785   0.011779
    14  C    0.000626   0.000627  -0.002013  -0.002011  -0.003522  -0.003525
    15  H    0.000226   0.000226  -0.000016  -0.000016  -0.000013  -0.000013
    16  H    0.000512   0.000512   0.000809   0.000810   0.000007   0.000007
    17  H   -0.000040  -0.000040  -0.000031  -0.000031  -0.000001  -0.000001
    18  H    0.000005   0.000005   0.000003   0.000003   0.000000   0.000000
    19  H    0.000017  -0.000033   0.000006  -0.000006   0.000000   0.000000
    20  H   -0.000033   0.000017  -0.000006   0.000006   0.000000   0.000000
    21  H   -0.004318   0.005871  -0.002385   0.004061  -0.000521   0.000840
    22  H    0.005873  -0.004314   0.004060  -0.002386   0.000840  -0.000521
    23  H    0.021119  -0.031365   0.004948  -0.000194  -0.001228   0.003482
    24  H   -0.031361   0.021125  -0.000195   0.004939   0.003482  -0.001229
    25  H    0.651276  -0.105323   0.022813  -0.029527  -0.000163   0.004892
    26  H   -0.105323   0.651298  -0.029528   0.022811   0.004892  -0.000169
    27  H    0.022813  -0.029528   0.642494  -0.092793   0.018564  -0.024911
    28  H   -0.029527   0.022811  -0.092793   0.642506  -0.024913   0.018565
    29  H   -0.000163   0.004892   0.018564  -0.024913   0.644014  -0.093642
    30  H    0.004892  -0.000169  -0.024911   0.018565  -0.093642   0.644020
    31  H   -0.001443   0.003576   0.004021   0.001529   0.022080  -0.027947
    32  H    0.003575  -0.001443   0.001530   0.004019  -0.027946   0.022081
    33  H   -0.000827   0.000688  -0.000024   0.001633   0.010726  -0.002669
    34  H    0.000688  -0.000827   0.001633  -0.000024  -0.002669   0.010725
    35  H   -0.000012  -0.000012  -0.000002  -0.000002   0.000342   0.000342
    36  H   -0.000074   0.000023   0.000043   0.000136   0.000929  -0.000090
    37  H    0.000023  -0.000074   0.000136   0.000043  -0.000091   0.000929
              31         32         33         34         35         36
     1  C   -0.000002  -0.000001   0.000000   0.000000  -0.000001   0.000000
     2  N    0.000005   0.000005  -0.000007  -0.000007   0.000000   0.000000
     3  C   -0.000089  -0.000089  -0.000016  -0.000016  -0.000001   0.000001
     4  C    0.000022   0.000022  -0.000003  -0.000003   0.000000   0.000000
     5  N   -0.000002  -0.000002   0.000000   0.000000   0.000000   0.000000
     6  C   -0.000001  -0.000001   0.000000   0.000000   0.000000   0.000000
     7  C    0.000572   0.000574   0.000184   0.000184  -0.000055  -0.000033
     8  C   -0.002362  -0.002372  -0.000985  -0.000985  -0.000287   0.000045
     9  C   -0.001726  -0.001705   0.005727   0.005728  -0.000935  -0.000993
    10  C   -0.016835  -0.016829   0.001216   0.001214   0.002533  -0.001022
    11  C   -0.071972  -0.071985  -0.005193  -0.005190   0.009409  -0.009350
    12  C    0.458608   0.458614  -0.048702  -0.048704   0.037137  -0.028953
    13  C   -0.061668  -0.061678   0.412960   0.412958  -0.047762  -0.019008
    14  C    0.014397   0.014395  -0.051993  -0.051993   0.361143   0.403924
    15  H    0.000000   0.000000   0.000000   0.000000   0.000000   0.000000
    16  H   -0.000023  -0.000023  -0.000001  -0.000001   0.000000   0.000000
    17  H    0.000001   0.000001   0.000000   0.000000   0.000000   0.000000
    18  H    0.000000   0.000000   0.000000   0.000000   0.000000   0.000000
    19  H    0.000000   0.000000   0.000000   0.000000   0.000000   0.000000
    20  H    0.000000   0.000000   0.000000   0.000000   0.000000   0.000000
    21  H   -0.000037  -0.000042   0.000033  -0.000044   0.000000   0.000005
    22  H   -0.000042  -0.000037  -0.000044   0.000033   0.000000  -0.000005
    23  H   -0.000916   0.001016  -0.000074  -0.000004   0.000000   0.000002
    24  H    0.001017  -0.000916  -0.000004  -0.000073   0.000000  -0.000011
    25  H   -0.001443   0.003575  -0.000827   0.000688  -0.000012  -0.000074
    26  H    0.003576  -0.001443   0.000688  -0.000827  -0.000012   0.000023
    27  H    0.004021   0.001530  -0.000024   0.001633  -0.000002   0.000043
    28  H    0.001529   0.004019   0.001633  -0.000024  -0.000002   0.000136
    29  H    0.022080  -0.027946   0.010726  -0.002669   0.000342   0.000929
    30  H   -0.027947   0.022081  -0.002669   0.010725   0.000342  -0.000090
    31  H    0.646553  -0.091513   0.019246  -0.024993  -0.001447   0.010132
    32  H   -0.091513   0.646557  -0.024993   0.019246  -0.001447  -0.002592
    33  H    0.019246  -0.024993   0.628848  -0.069478  -0.002818   0.014015
    34  H   -0.024993   0.019246  -0.069478   0.628849  -0.002818  -0.018334
    35  H   -0.001447  -0.001447  -0.002818  -0.002818   0.533292  -0.021948
    36  H    0.010132  -0.002592   0.014015  -0.018334  -0.021948   0.591591
    37  H   -0.002593   0.010132  -0.018334   0.014015  -0.021948  -0.055747
              37
     1  C    0.000000
     2  N    0.000000
     3  C    0.000001
     4  C    0.000000
     5  N    0.000000
     6  C    0.000000
     7  C   -0.000033
     8  C    0.000045
     9  C   -0.000993
    10  C   -0.001023
    11  C   -0.009350
    12  C   -0.028956
    13  C   -0.019007
    14  C    0.403926
    15  H    0.000000
    16  H    0.000000
    17  H    0.000000
    18  H    0.000000
    19  H    0.000000
    20  H    0.000000
    21  H   -0.000005
    22  H    0.000005
    23  H   -0.000011
    24  H    0.000002
    25  H    0.000023
    26  H   -0.000074
    27  H    0.000136
    28  H    0.000043
    29  H   -0.000091
    30  H    0.000929
    31  H   -0.002593
    32  H    0.010132
    33  H   -0.018334
    34  H    0.014015
    35  H   -0.021948
    36  H   -0.055747
    37  H    0.591591
 Mulliken charges:
               1
     1  C   -0.064939
     2  N    0.132920
     3  C   -0.023976
     4  C   -0.181967
     5  N    0.155027
     6  C   -0.271013
     7  C   -0.377728
     8  C    0.469158
     9  C   -0.802729
    10  C   -0.149682
    11  C   -0.339276
    12  C   -0.496922
    13  C   -0.240304
    14  C   -0.641230
    15  H    0.202148
    16  H    0.196070
    17  H    0.221272
    18  H    0.197014
    19  H    0.217051
    20  H    0.217019
    21  H    0.238537
    22  H    0.238509
    23  H    0.182205
    24  H    0.182189
    25  H    0.141834
    26  H    0.141849
    27  H    0.128537
    28  H    0.128536
    29  H    0.129245
    30  H    0.129240
    31  H    0.123851
    32  H    0.123849
    33  H    0.130890
    34  H    0.130890
    35  H    0.157297
    36  H    0.137316
    37  H    0.137316
 Sum of Mulliken charges =   1.00000
 Mulliken charges with hydrogens summed into heavy atoms:
               1
     1  C    0.137209
     2  N    0.132920
     3  C    0.172094
     4  C    0.039305
     5  N    0.155027
     6  C    0.360070
     7  C    0.099318
     8  C    0.833551
     9  C   -0.519046
    10  C    0.107391
    11  C   -0.080791
    12  C   -0.249222
    13  C    0.021476
    14  C   -0.209302
 Electronic spatial extent (au):  <R**2>=           7841.9921
 Charge=              1.0000 electrons
 Dipole moment (field-independent basis, Debye):
    X=             16.3591    Y=             -0.6313    Z=              0.0001  Tot=             16.3713
 Quadrupole moment (field-independent basis, Debye-Ang):
   XX=             13.3076   YY=            -78.7105   ZZ=            -87.0158
   XY=              0.0859   XZ=              0.0015   YZ=             -0.0007
 Traceless Quadrupole moment (field-independent basis, Debye-Ang):
   XX=             64.1138   YY=            -27.9042   ZZ=            -36.2096
   XY=              0.0859   XZ=              0.0015   YZ=             -0.0007
 Octapole moment (field-independent basis, Debye-Ang**2):
  XXX=            542.6055  YYY=              3.8138  ZZZ=              0.0012  XYY=             54.6195
  XXY=             -2.3655  XXZ=              0.0103  XZZ=              8.5282  YZZ=             -3.6854
  YYZ=             -0.0012  XYZ=             -0.0018
 Hexadecapole moment (field-independent basis, Debye-Ang**3):
 XXXX=          -6635.7154 YYYY=           -390.5949 ZZZZ=           -158.1724 XXXY=             71.8195
 XXXZ=              0.0718 YYYX=             28.1099 YYYZ=             -0.0054 ZZZX=              0.0107
 ZZZY=              0.0012 XXYY=          -1605.9137 XXZZ=          -1705.7472 YYZZ=            -93.3710
 XXYZ=             -0.0138 YYXZ=             -0.0046 ZZXY=            -15.3727
 N-N= 8.515294009154D+02 E-N=-3.033960509974D+03  KE= 5.780345702247D+02

 **********************************************************************

            Electrostatic Properties Using The SCF Density

 **********************************************************************

       Atomic Center    1 is at   4.022792 -0.769340  0.000052
       Atomic Center    2 is at   2.856363 -0.182404 -0.000059
       Atomic Center    3 is at   3.131090  1.096888 -0.000113
       Atomic Center    4 is at   4.458128  1.291789 -0.000062
       Atomic Center    5 is at   4.927559  0.116504  0.000053
       Atomic Center    6 is at   6.361449 -0.200566  0.000182
       Atomic Center    7 is at   1.516772 -0.873877 -0.000122
       Atomic Center    8 is at   0.303030  0.066748 -0.000043
       Atomic Center    9 is at  -1.025672 -0.707624 -0.000076
       Atomic Center   10 is at  -2.239752  0.235687  0.000015
       Atomic Center   11 is at  -3.569317 -0.536324 -0.000035
       Atomic Center   12 is at  -4.781907  0.408767  0.000061
       Atomic Center   13 is at  -6.112495 -0.360551 -0.000002
       Atomic Center   14 is at  -7.319317  0.587281  0.000099
       Atomic Center   15 is at   4.222807 -1.846148  0.000135
       Atomic Center   16 is at   2.377200  1.893371 -0.000194
       Atomic Center   17 is at   5.050992  2.211275 -0.000092
       Atomic Center   18 is at   6.991261  0.717567 -0.000100
       Atomic Center   19 is at   6.625373 -0.793380  0.905720
       Atomic Center   20 is at   6.625448 -0.793977 -0.904942
       Atomic Center   21 is at   1.466976 -1.533518 -0.898774
       Atomic Center   22 is at   1.466963 -1.533721  0.898378
       Atomic Center   23 is at   0.342715  0.721914  0.902682
       Atomic Center   24 is at   0.342689  0.722015 -0.902698
       Atomic Center   25 is at  -1.070107 -1.366699 -0.899539
       Atomic Center   26 is at  -1.070078 -1.366831  0.899292
       Atomic Center   27 is at  -2.195367  0.894767  0.899505
       Atomic Center   28 is at  -2.195387  0.894917 -0.899366
       Atomic Center   29 is at  -3.614206 -1.195220 -0.899613
       Atomic Center   30 is at  -3.614186 -1.195376  0.899428
       Atomic Center   31 is at  -4.737256  1.067798  0.899574
       Atomic Center   32 is at  -4.737268  1.067964 -0.899331
       Atomic Center   33 is at  -6.163380 -1.019636 -0.899561
       Atomic Center   34 is at  -6.163365 -1.019807  0.899431
       Atomic Center   35 is at  -8.276259  0.016152  0.000050
       Atomic Center   36 is at  -7.315903  1.242211  0.901277
       Atomic Center   37 is at  -7.315918  1.242385 -0.900954
 -----------------------------------------------------------------

              Electrostatic Properties (Atomic Units)

 -----------------------------------------------------------------
    Center     Electric         -------- Electric Field --------
               Potential          X             Y             Z
 -----------------------------------------------------------------
    1 Atom    -14.535567     -0.002310     -0.033159      0.000002
    2 Atom    -18.145913     -0.017933     -0.008634      0.000000
    3 Atom    -14.579875     -0.010193      0.030721     -0.000002
    4 Atom    -14.582304     -0.006296      0.033876     -0.000003
    5 Atom    -18.145819      0.027900     -0.007549      0.000002
    6 Atom    -14.561361      0.015275     -0.004503      0.000003
    7 Atom    -14.563652     -0.014199     -0.005599     -0.000001
    8 Atom    -14.630499     -0.003938      0.001682      0.000000
    9 Atom    -14.658138     -0.003628      0.000577      0.000000
   10 Atom    -14.680014     -0.002609     -0.001423      0.000000
   11 Atom    -14.695985     -0.001679      0.002123      0.000000
   12 Atom    -14.707305     -0.001583     -0.002273      0.000000
   13 Atom    -14.713119     -0.000476      0.001517      0.000000
   14 Atom    -14.725843      0.000126     -0.001012      0.000000
   15 Atom     -0.881918     -0.001973     -0.007843      0.000000
   16 Atom     -0.919707     -0.008279      0.000803     -0.000001
   17 Atom     -0.902218      0.003063      0.005793      0.000000
   18 Atom     -0.928038     -0.004463      0.004079     -0.000002
   19 Atom     -0.934040     -0.000285     -0.001161      0.002525
   20 Atom     -0.934035     -0.000288     -0.001162     -0.002524
   21 Atom     -0.948751      0.003970     -0.000853     -0.002989
   22 Atom     -0.948747      0.003972     -0.000852      0.002991
   23 Atom     -0.988285     -0.000492      0.003715      0.002914
   24 Atom     -0.988285     -0.000492      0.003715     -0.002912
   25 Atom     -1.015236     -0.000755     -0.004038     -0.003230
   26 Atom     -1.015236     -0.000754     -0.004038      0.003229
   27 Atom     -1.035349      0.000079      0.004081      0.003269
   28 Atom     -1.035349      0.000079      0.004082     -0.003268
   29 Atom     -1.050504     -0.000469     -0.004141     -0.003239
   30 Atom     -1.050504     -0.000469     -0.004142      0.003238
   31 Atom     -1.061261      0.000076      0.004272      0.003349
   32 Atom     -1.061261      0.000076      0.004273     -0.003348
   33 Atom     -1.070327      0.000267     -0.003955     -0.002741
   34 Atom     -1.070327      0.000267     -0.003956      0.002741
   35 Atom     -1.073300     -0.003882     -0.000955      0.000000
   36 Atom     -1.072376     -0.000551      0.003119      0.003492
   37 Atom     -1.072376     -0.000551      0.003120     -0.003491
 -----------------------------------------------------------------
 -----------------------------------------------------
    Center         ---- Electric Field Gradient ----
                     XX            YY            ZZ
 -----------------------------------------------------
    1 Atom     -500.881112   -500.653401   -500.792548
    2 Atom     -812.720747   -812.657267   -812.231969
    3 Atom     -500.631228   -500.957441   -500.984292
    4 Atom     -500.682134   -500.903394   -500.957640
    5 Atom     -812.738286   -812.598363   -812.258310
    6 Atom     -500.679098   -500.087399   -500.068206
    7 Atom     -500.770925   -500.395265   -500.210738
    8 Atom     -500.374933   -500.339595   -500.255326
    9 Atom     -500.387975   -500.334657   -500.278540
   10 Atom     -500.358988   -500.372158   -500.304839
   11 Atom     -500.360576   -500.358247   -500.308657
   12 Atom     -500.356309   -500.380804   -500.325064
   13 Atom     -500.303536   -500.294882   -500.247552
   14 Atom     -500.288797   -500.293013   -500.265368
   15 Atom       -1.643997     -2.025021     -1.590292
   16 Atom       -1.834086     -1.849751     -1.604667
   17 Atom       -1.745536     -1.915457     -1.587698
   18 Atom       -1.757020     -1.904975     -1.616475
   19 Atom       -1.671207     -1.740912     -1.891546
   20 Atom       -1.671214     -1.741136     -1.891304
[...]
 Hexadecapole moment (field-independent basis, Debye-Ang**3):
 XXXX=          -6566.9977 YYYY=           -393.0478 ZZZZ=           -155.1996 XXXY=             37.6250
 XXXZ=              0.2342 YYYX=             24.0718 YYYZ=             -0.0119 ZZZX=              0.0231
 ZZZY=              0.0028 XXYY=          -1597.7794 XXZZ=          -1714.1468 YYZZ=            -94.6868
 XXYZ=             -0.0266 YYXZ=             -0.0048 ZZXY=            -16.9479
 N-N= 8.457572028535D+02 E-N=-3.022448224977D+03  KE= 5.777957776052D+02

 **********************************************************************

            Electrostatic Properties Using The SCF Density

 **********************************************************************

       Atomic Center    1 is at   4.007335 -0.822379  0.000112
       Atomic Center    2 is at   2.830252 -0.187823 -0.000196
       Atomic Center    3 is at   3.071500  1.171299 -0.000333
       Atomic Center    4 is at   4.423573  1.340852 -0.000114
       Atomic Center    5 is at   4.992245  0.084059  0.000166
       Atomic Center    6 is at   6.434011 -0.217364  0.000524
       Atomic Center    7 is at   1.505328 -0.879184 -0.000398
       Atomic Center    8 is at   0.318156  0.076703 -0.000110
       Atomic Center    9 is at  -1.010182 -0.696058 -0.000197
       Atomic Center   10 is at  -2.232096  0.230537  0.000020
       Atomic Center   11 is at  -3.564271 -0.528094 -0.000055
       Atomic Center   12 is at  -4.787707  0.395245  0.000136
       Atomic Center   13 is at  -6.122455 -0.358934  0.000060
       Atomic Center   14 is at  -7.338717  0.570955  0.000244
       Atomic Center   15 is at   4.141750 -1.891781  0.000285
       Atomic Center   16 is at   2.280504  1.899014 -0.000576
       Atomic Center   17 is at   5.017476  2.238770 -0.000125
       Atomic Center   18 is at   6.979393  0.723426  0.000105
       Atomic Center   19 is at   6.693192 -0.782794  0.894979
       Atomic Center   20 is at   6.693432 -0.783718 -0.893274
       Atomic Center   21 is at   1.482299 -1.517055 -0.886339
       Atomic Center   22 is at   1.482314 -1.517554  0.885183
       Atomic Center   23 is at   0.358846  0.722104  0.883998
       Atomic Center   24 is at   0.358721  0.722487 -0.883944
       Atomic Center   25 is at  -1.050572 -1.351011 -0.878773
       Atomic Center   26 is at  -1.050498 -1.351331  0.878142
       Atomic Center   27 is at  -2.188737  0.887099  0.878024
       Atomic Center   28 is at  -2.188814  0.887405 -0.877760
       Atomic Center   29 is at  -3.606531 -1.185737 -0.877521
       Atomic Center   30 is at  -3.606469 -1.186020  0.877201
       Atomic Center   31 is at  -4.745480  1.053622  0.877444
       Atomic Center   32 is at  -4.745539  1.053904 -0.876964
       Atomic Center   33 is at  -6.164879 -1.016592 -0.876547
       Atomic Center   34 is at  -6.164823 -1.016869  0.876462
       Atomic Center   35 is at  -8.272483  0.003204  0.000180
       Atomic Center   36 is at  -7.343687  1.217011  0.883585
       Atomic Center   37 is at  -7.343737  1.217293 -0.882891
 -----------------------------------------------------------------

              Electrostatic Properties (Atomic Units)

 -----------------------------------------------------------------
    Center     Electric         -------- Electric Field --------
               Potential          X             Y             Z
 -----------------------------------------------------------------
    1 Atom    -14.517479      0.001675     -0.012407      0.000002
    2 Atom    -18.143657     -0.009448     -0.001029      0.000000
    3 Atom    -14.565411     -0.000782      0.012149     -0.000002
    4 Atom    -14.564480     -0.002280      0.011825     -0.000002
    5 Atom    -18.138324      0.007144      0.001605      0.000000
    6 Atom    -14.568149      0.010954     -0.002566      0.000003
    7 Atom    -14.572419     -0.012524     -0.002952     -0.000001
    8 Atom    -14.635775     -0.005118     -0.000801      0.000001
    9 Atom    -14.663676     -0.003748      0.002233      0.000000
   10 Atom    -14.685518     -0.002710     -0.002433      0.000000
   11 Atom    -14.701421     -0.001691      0.002838      0.000000
   12 Atom    -14.712972     -0.001671     -0.002847      0.000000
   13 Atom    -14.718918     -0.000074      0.002554      0.000000
   14 Atom    -14.732963      0.001971     -0.001637      0.000000
   15 Atom     -0.876514      0.002508     -0.020279      0.000003
   16 Atom     -0.909038     -0.015160      0.014031     -0.000005
   17 Atom     -0.906121      0.011249      0.017151      0.000000
   18 Atom     -0.934352      0.009721      0.016151     -0.000008
   19 Atom     -0.938383      0.004909     -0.009678      0.015469
   20 Atom     -0.938378      0.004913     -0.009694     -0.015457
   21 Atom     -0.953332     -0.000683     -0.010968     -0.015136
   22 Atom     -0.953326     -0.000682     -0.010977      0.015129
   23 Atom     -0.989572      0.000177      0.010597      0.014638
   24 Atom     -0.989571      0.000175      0.010603     -0.014633
   25 Atom     -1.018953     -0.000985     -0.010674     -0.014301
   26 Atom     -1.018953     -0.000984     -0.010679      0.014298
   27 Atom     -1.039473      0.000491      0.010657      0.014206
   28 Atom     -1.039473      0.000490      0.010662     -0.014202
   29 Atom     -1.054878     -0.000855     -0.010641     -0.014165
   30 Atom     -1.054878     -0.000854     -0.010645      0.014161
   31 Atom     -1.065990      0.000581      0.010652      0.014137
   32 Atom     -1.065990      0.000580      0.010656     -0.014133
   33 Atom     -1.074879     -0.000885     -0.010674     -0.014178
   34 Atom     -1.074879     -0.000885     -0.010678      0.014174
   35 Atom     -1.075992     -0.015488     -0.009302     -0.000001
   36 Atom     -1.075848     -0.000296      0.010549      0.014435
   37 Atom     -1.075847     -0.000297      0.010554     -0.014431
 -----------------------------------------------------------------
 -----------------------------------------------------
    Center         ---- Electric Field Gradient ----
                     XX            YY            ZZ
 -----------------------------------------------------
    1 Atom     -500.855482   -500.581160   -500.821555
    2 Atom     -812.797102   -812.839222   -812.246744
    3 Atom     -500.569280   -500.968841   -500.925292
    4 Atom     -500.662692   -500.915664   -500.918104
    5 Atom     -812.666561   -812.665122   -812.020594
    6 Atom     -500.772929   -500.116752   -500.098159
    7 Atom     -500.796830   -500.430147   -500.234149
    8 Atom     -500.364594   -500.336592   -500.237144
    9 Atom     -500.391114   -500.326596   -500.253977
   10 Atom     -500.361286   -500.355555   -500.276877
   11 Atom     -500.362649   -500.339679   -500.277500
   12 Atom     -500.360178   -500.362615   -500.295465
   13 Atom     -500.312738   -500.282629   -500.220692
   14 Atom     -500.293793   -500.287142   -500.252753
   15 Atom       -1.654073     -2.094571     -1.609289
   16 Atom       -1.905015     -1.864640     -1.618115
   17 Atom       -1.794182     -1.971447     -1.614608
   18 Atom       -1.794567     -2.016306     -1.658040
   19 Atom       -1.709256     -1.785945     -1.971118
   20 Atom       -1.709302     -1.786351     -1.970672
   21 Atom       -1.708968     -1.838150     -1.981797
   22 Atom       -1.708977     -1.838391     -1.981563
   23 Atom       -1.706188     -1.848981     -1.984242
   24 Atom       -1.706195     -1.849176     -1.984072
   25 Atom       -1.709510     -1.853031     -1.984159
   26 Atom       -1.709510     -1.853187     -1.984008
   27 Atom       -1.711183     -1.856731     -1.986655
   28 Atom       -1.711181     -1.856880     -1.986511
   29 Atom       -1.711055     -1.857803     -1.987101
   30 Atom       -1.711054     -1.857941     -1.986966
   31 Atom       -1.711621     -1.858781     -1.987538
   32 Atom       -1.711619     -1.858918     -1.987404
   33 Atom       -1.712278     -1.862233     -1.990592
   34 Atom       -1.712277     -1.862368     -1.990460
   35 Atom       -2.018861     -1.813717     -1.682903
   36 Atom       -1.691087     -1.844052     -1.984682
   37 Atom       -1.691087     -1.844190     -1.984543
 -----------------------------------------------------
 -----------------------------------------------------
    Center         ---- Electric Field Gradient ----
                     XY            XZ            YZ
 -----------------------------------------------------
    1 Atom       -0.041945      0.000002     -0.000041
    2 Atom        0.038645     -0.000130      0.000074
    3 Atom       -0.133771      0.000085     -0.000017
    4 Atom        0.205940      0.000020      0.000036
    5 Atom       -0.016407     -0.000137      0.000095
    6 Atom        0.128795     -0.000156      0.000025
    7 Atom       -0.321671     -0.000082     -0.000047
    8 Atom        0.098624      0.000037     -0.000024
    9 Atom       -0.073682     -0.000005     -0.000009
   10 Atom        0.053328      0.000013     -0.000015
   11 Atom       -0.036413     -0.000003     -0.000009
   12 Atom        0.028118      0.000007     -0.000012
   13 Atom       -0.012551      0.000001     -0.000009
   14 Atom        0.045893      0.000008     -0.000007
   15 Atom        0.056526     -0.000015      0.000078
   16 Atom        0.234319     -0.000085      0.000076
   17 Atom       -0.215158     -0.000004      0.000008
   18 Atom       -0.186283      0.000080      0.000161
   19 Atom        0.054251     -0.080442      0.195624
   20 Atom        0.054386      0.080455     -0.195804
   21 Atom       -0.008943     -0.002055     -0.210605
   22 Atom       -0.008940      0.002042      0.210690
   23 Atom       -0.010014     -0.016251     -0.209844
   24 Atom       -0.009995      0.016208      0.209907
   25 Atom       -0.008718     -0.009855     -0.211870
   26 Atom       -0.008704      0.009828      0.211919
   27 Atom       -0.010032     -0.016551     -0.211753
   28 Atom       -0.010020      0.016524      0.211799
   29 Atom       -0.009240     -0.011736     -0.212227
   30 Atom       -0.009229      0.011714      0.212269
   31 Atom       -0.009647     -0.015056     -0.212054
   32 Atom       -0.009637      0.015034      0.212096
   33 Atom       -0.009393     -0.012406     -0.213464
   34 Atom       -0.009384      0.012385      0.213505
   35 Atom       -0.202037     -0.000023     -0.000015
   36 Atom        0.002606     -0.002160     -0.216539
   37 Atom        0.002617      0.002144      0.216583
 -----------------------------------------------------
 -----------------------------------------------------
    Center         ---- Electric Field Gradient ----
                   ----       Eigenvalues       ----
 -----------------------------------------------------
    1 Atom     -500.861753   -500.821555   -500.574890
    2 Atom     -812.862174   -812.774151   -812.246744
    3 Atom     -501.009492   -500.925292   -500.528629
    4 Atom     -501.030860   -500.918104   -500.547496
    5 Atom     -812.682264   -812.649419   -812.020594
    6 Atom     -500.797303   -500.098159   -500.092378
    7 Atom     -500.983740   -500.243237   -500.234149
    8 Atom     -500.450206   -500.250981   -500.237144
    9 Atom     -500.439290   -500.278421   -500.253977
   10 Atom     -500.411825   -500.305016   -500.276877
   11 Atom     -500.389345   -500.312983   -500.277500
   12 Atom     -500.389541   -500.333252   -500.295465
   13 Atom     -500.317284   -500.278083   -500.220692
   14 Atom     -500.336481   -500.252753   -500.244454
   15 Atom       -2.101709     -1.646935     -1.609289
   16 Atom       -2.120014     -1.649641     -1.618115
   17 Atom       -2.115512     -1.650116     -1.614608
   18 Atom       -2.122216     -1.688657     -1.658040
   19 Atom       -2.117974     -1.686548     -1.661797
   20 Atom       -2.117978     -1.686551     -1.661795
   21 Atom       -2.132600     -1.710461     -1.685853
   22 Atom       -2.132607     -1.710470     -1.685853
   23 Atom       -2.137924     -1.705579     -1.695909
   24 Atom       -2.137936     -1.705589     -1.695918
   25 Atom       -2.140775     -1.709222     -1.696702
   26 Atom       -2.140778     -1.709223     -1.696704
   27 Atom       -2.144044     -1.710625     -1.699900
   28 Atom       -2.144046     -1.710626     -1.699900
   29 Atom       -2.144821     -1.710561     -1.700578
   30 Atom       -2.144822     -1.710561     -1.700578
   31 Atom       -2.145504     -1.711043     -1.701392
   32 Atom       -2.145505     -1.711044     -1.701393
   33 Atom       -2.149869     -1.711727     -1.703507
   34 Atom       -2.149870     -1.711727     -1.703507
   35 Atom       -2.142872     -1.689706     -1.682903
   36 Atom       -2.142036     -1.692920     -1.684865
   37 Atom       -2.142036     -1.692920     -1.684864
 -----------------------------------------------------
 -----------------------------------------------------
    Center         ---- Electric Field Gradient ----
                       ( tensor representation )
                   3XX-RR        3YY-RR        3ZZ-RR
 -----------------------------------------------------
    1 Atom       -0.102750      0.171572     -0.068823
    2 Atom       -0.169412     -0.211533      0.380945
    3 Atom        0.251858     -0.147704     -0.104154
    4 Atom        0.169461     -0.083511     -0.085951
    5 Atom       -0.215802     -0.214363      0.430165
    6 Atom       -0.443649      0.212528      0.231121
    7 Atom       -0.309788      0.056895      0.252893
    8 Atom       -0.051818     -0.023816      0.075633
    9 Atom       -0.067219     -0.002700      0.069919
   10 Atom       -0.030047     -0.024316      0.054363
   11 Atom       -0.036040     -0.013070      0.049110
   12 Atom       -0.020759     -0.023195      0.043954
   13 Atom       -0.040719     -0.010609      0.051328
   14 Atom       -0.015897     -0.009246      0.025143
   15 Atom        0.131905     -0.308594      0.176689
   16 Atom       -0.109091     -0.068717      0.177808
   17 Atom       -0.000769     -0.178034      0.178804
   18 Atom        0.028404     -0.193335      0.164931
   19 Atom        0.112850      0.036162     -0.149012
   20 Atom        0.112806      0.035757     -0.148564
   21 Atom        0.134003      0.004822     -0.138825
   22 Atom        0.134000      0.004586     -0.138586
   23 Atom        0.140282     -0.002511     -0.137771
   24 Atom        0.140286     -0.002695     -0.137591
   25 Atom        0.139390     -0.004131     -0.135259
   26 Atom        0.139392     -0.004285     -0.135106
   27 Atom        0.140340     -0.005209     -0.135132
   28 Atom        0.140343     -0.005356     -0.134987
   29 Atom        0.140931     -0.005817     -0.135115
   30 Atom        0.140933     -0.005954     -0.134979
   31 Atom        0.141026     -0.006135     -0.134891
   32 Atom        0.141028     -0.006271     -0.134757
   33 Atom        0.142756     -0.007199     -0.135558
   34 Atom        0.142758     -0.007333     -0.135425
   35 Atom       -0.180368      0.024777      0.155591
   36 Atom        0.148853     -0.004112     -0.144741
   37 Atom        0.148854     -0.004250     -0.144603
 -----------------------------------------------------
 -----------------------------------------------------
    Center         ---- Electric Field Gradient ----
                       ( tensor representation )
                   ----       Eigenvalues       ----
 -----------------------------------------------------
    1 Atom       -0.109020     -0.068823      0.177843
    2 Atom       -0.234484     -0.146461      0.380945
    3 Atom       -0.188354     -0.104154      0.292508
    4 Atom       -0.198707     -0.085951      0.284657
    5 Atom       -0.231505     -0.198660      0.430165
    6 Atom       -0.468023      0.231121      0.236902
    7 Atom       -0.496698      0.243805      0.252893
    8 Atom       -0.137429      0.061796      0.075633
    9 Atom       -0.115394      0.045475      0.069919
   10 Atom       -0.080586      0.026223      0.054363
   11 Atom       -0.062736      0.013626      0.049110
   12 Atom       -0.050121      0.006167      0.043954
   13 Atom       -0.045264     -0.006063      0.051328
   14 Atom       -0.058585      0.025143      0.033442
   15 Atom       -0.315732      0.139043      0.176689
   16 Atom       -0.324091      0.146283      0.177808
   17 Atom       -0.322100      0.143296      0.178804
   18 Atom       -0.299245      0.134314      0.164931
   19 Atom       -0.295868      0.135558      0.160310
   20 Atom       -0.295870      0.135557      0.160313
   21 Atom       -0.289629      0.132510      0.157119
   22 Atom       -0.289630      0.132507      0.157124
   23 Atom       -0.291453      0.140892      0.150561
   24 Atom       -0.291455      0.140892      0.150563
   25 Atom       -0.291876      0.139678      0.152198
   26 Atom       -0.291877      0.139678      0.152198
   27 Atom       -0.292522      0.140898      0.151623
   28 Atom       -0.292522      0.140898      0.151624
   29 Atom       -0.292835      0.141426      0.151409
   30 Atom       -0.292835      0.141426      0.151409
   31 Atom       -0.292858      0.141603      0.151254
   32 Atom       -0.292858      0.141603      0.151255
   33 Atom       -0.294835      0.143307      0.151527
   34 Atom       -0.294835      0.143308      0.151527
   35 Atom       -0.304378      0.148787      0.155591
   36 Atom       -0.302096      0.147020      0.155076
   37 Atom       -0.302096      0.147020      0.155076
 -----------------------------------------------------

 Test job not archived.
 1|1|UNPC-NP-ALMACH|FOpt|RB3LYP|6-311++G(d,p)|C12H23N2(1+)|HERA|23-Aug-
 2018|0||# RB3LYP/6-311++G** Opt Test prop=EFG||C12N2H23||1,1|C,-4.6059
 806553,0.9458888022,-1.0041246788|N,-3.394081257,0.3966031509,-0.87080
 8592|C,-3.4621363945,-0.9120060682,-1.304770906|C,-4.7454024475,-1.138
 4835758,-1.7032509981|N,-5.4459605159,0.0337293861,-1.5081847121|C,-6.
 8727632908,0.2524178818,-1.8013656612|C,-2.2001689863,1.1197840079,-0.
 3369678625|C,-0.9397818627,0.2641324523,-0.2881741624|C,0.2475416052,1
 .0651286397,0.2688799361|C,1.5378992941,0.2391132026,0.3346583642|C,2.
 7306304421,1.0268040775,0.8888677608|C,4.0220675622,0.2039767876,0.955
 9075285|C,5.2178182986,0.9875421004,1.5095708514|C,6.5031335926,0.1581
 22613,1.5729467295|H,-4.8650943838,1.9600360126,-0.7471184045|H,-2.611
 2608224,-1.5686647593,-1.2974516406|H,-5.209369334,-2.0238117312,-2.10
 31328114|H,-7.2846575302,-0.67138875,-2.2006798557|H,-7.4019649059,0.5
 160457959,-0.8862805023|H,-6.980795069,1.0439770465,-2.5421049551|H,-2
 .0463575031,1.9907759535,-0.97729374|H,-2.4640020051,1.4691216842,0.66
 33593735|H,-1.1092787895,-0.6143496726,0.3437957722|H,-0.6923866232,-0
 .0936356028,-1.2934813057|H,0.4142884945,1.9510820758,-0.3554372855|H,
 0.0000530215,1.4335600945,1.2716245988|H,1.3686180576,-0.6483491325,0.
 9572338798|H,1.7825887287,-0.1311462519,-0.6687760625|H,2.8985938225,1
 .9150870129,0.2667999149|H,2.4848907995,1.39817664,1.8918237474|H,3.85
 42616394,-0.6849588966,1.5776374965|H,4.2678881879,-0.1681395299,-0.04
 70954503|H,5.3857353438,1.8755943789,0.8883449896|H,4.972443367,1.3591
 822692,2.5117829166|H,7.3348021502,0.7446038459,1.9712260374|H,6.37792
 33536,-0.718576868,2.2159278147|H,6.794385615,-0.198201073,0.580016874
 8||Version=EM64W-G09RevD.01|State=1-A|HF=-580.5832792|RMSD=7.265e-009|
 RMSF=6.564e-005|Dipole=-6.2220595,-0.063576,-1.603912|Quadrupole=42.51
 36552,-20.6685697,-21.8450854,2.1711577,18.4849434,2.6988083|PG=C01 [X
 (C12H23N2)]||@


 Democracy is the recurrent suspicion that more than half of the people
 are right more than half of the time.
 -- E. B. White
 Job cpu time:       0 days  0 hours 21 minutes 48.0 seconds.
 File lengths (MBytes):  RWF=     99 Int=      0 D2E=      0 Chk=     17 Scr=      1
 Normal termination of Gaussian 09 at Thu Aug 23 13:35:12 2018.
