 Entering Link 1 = C:\G09W\l1.exe PID=     12204.
  
 Copyright (c) 1988,1990,1992,1993,1995,1998,2003,2009,2013,
            Gaussian, Inc.  All Rights Reserved.
  
 This is part of the Gaussian(R) 09 program.  It is based on
 the Gaussian(R) 03 system (copyright 2003, Gaussian, Inc.),
 the Gaussian(R) 98 system (copyright 1998, Gaussian, Inc.),
 the Gaussian(R) 94 system (copyright 1995, Gaussian, Inc.),
 the Gaussian 92(TM) system (copyright 1992, Gaussian, Inc.),
 the Gaussian 90(TM) system (copyright 1990, Gaussian, Inc.),
 the Gaussian 88(TM) system (copyright 1988, Gaussian, Inc.),
 the Gaussian 86(TM) system (copyright 1986, Carnegie Mellon
 University), and the Gaussian 82(TM) system (copyright 1983,
 Carnegie Mellon University). Gaussian is a federally registered
 trademark of Gaussian, Inc.
  
 This software contains proprietary and confidential information,
 including trade secrets, belonging to Gaussian, Inc.
  
 This software is provided under written license and may be
 used, copied, transmitted, or stored only in accord with that
 written license.
  
 The following legend is applicable only to US Government
 contracts under FAR:
  
                    RESTRICTED RIGHTS LEGEND
  
 Use, reproduction and disclosure by the US Government is
 subject to restrictions as set forth in subparagraphs (a)
 and (c) of the Commercial Computer Software - Restricted
 Rights clause in FAR 52.227-19.
  
 Gaussian, Inc.
 340 Quinnipiac St., Bldg. 40, Wallingford CT 06492
  
  
 ---------------------------------------------------------------
 Warning -- This program may not be used in any manner that
 competes with the business of Gaussian, Inc. or will provide
 assistance to any competitor of Gaussian, Inc.  The licensee
 of this program is prohibited from giving any competitor of
 Gaussian, Inc. access to this program.  By using this program,
 the user acknowledges that Gaussian, Inc. is engaged in the
 business of creating and licensing software in the field of
 computational chemistry and represents and warrants to the
 licensee that it is not a competitor of Gaussian, Inc. and that
 it will not use this program in any manner prohibited above.
 ---------------------------------------------------------------
  

 Cite this work as:
 Gaussian 09, Revision D.01,
 M. J. Frisch, G. W. Trucks, H. B. Schlegel, G. E. Scuseria, 
 M. A. Robb, J. R. Cheeseman, G. Scalmani, V. Barone, B. Mennucci, 
 G. A. Petersson, H. Nakatsuji, M. Caricato, X. Li, H. P. Hratchian, 
 A. F. Izmaylov, J. Bloino, G. Zheng, J. L. Sonnenberg, M. Hada, 
 M. Ehara, K. Toyota, R. Fukuda, J. Hasegawa, M. Ishida, T. Nakajima, 
 Y. Honda, O. Kitao, H. Nakai, T. Vreven, J. A. Montgomery, Jr., 
 J. E. Peralta, F. Ogliaro, M. Bearpark, J. J. Heyd, E. Brothers, 
 K. N. Kudin, V. N. Staroverov, T. Keith, R. Kobayashi, J. Normand, 
 K. Raghavachari, A. Rendell, J. C. Burant, S. S. Iyengar, J. Tomasi, 
 M. Cossi, N. Rega, J. M. Millam, M. Klene, J. E. Knox, J. B. Cross, 
 V. Bakken, C. Adamo, J. Jaramillo, R. Gomperts, R. E. Stratmann, 
 O. Yazyev, A. J. Austin, R. Cammi, C. Pomelli, J. W. Ochterski, 
 R. L. Martin, K. Morokuma, V. G. Zakrzewski, G. A. Voth, 
 P. Salvador, J. J. Dannenberg, S. Dapprich, A. D. Daniels, 
 O. Farkas, J. B. Foresman, J. V. Ortiz, J. Cioslowski, 
 and D. J. Fox, Gaussian, Inc., Wallingford CT, 2013.
 
 ******************************************
 Gaussian 09:  EM64W-G09RevD.01 13-Apr-2013
                06-Aug-2018 
 ******************************************
 %Chk=Anth_234.chk
 %Mem=64GB
 %NProcShared=20
 Will use up to   20 processors via shared memory.
 -------------------------------------
 # RB3LYP/6-311++G** Opt Test prop=EFG
 -------------------------------------
 1/14=-1,18=20,19=15,26=3,38=1/1,3;
 2/9=110,12=2,17=6,18=5,40=1/2;
 3/5=4,6=6,7=1111,11=2,16=1,25=1,30=1,71=1,74=-5,116=1/1,2,3;
 4//1;
 5/5=2,38=5/2;
 6/7=2,8=2,9=2,10=2,14=1,28=1/1,2;
 7//1,2,3,16;
 1/14=-1,18=20,19=15,26=3/3(2);
 2/9=110/2;
 99//99;
 2/9=110/2;
 3/5=4,6=6,7=1111,11=2,16=1,25=1,30=1,71=1,74=-5,116=1/1,2,3;
 4/5=5,16=3,69=1/1;
 5/5=2,38=5/2;
 7//1,2,3,16;
 1/14=-1,18=20,19=15,26=3/3(-5);
 2/9=110/2;
 6/7=2,8=2,9=2,10=2,14=1,19=2,28=1/1,2;
 99/9=1/99;
 --------
 C12N2H12
 --------
 Symbolic Z-matrix:
 Charge =  2 Multiplicity = 1
 C                     2.64608  -1.87129   0.08776 
 C                     3.41954  -0.78152   0.09056 
 C                     2.79208   0.39429  -0.01666 
 N                     1.49444   0.51299  -0.10939 
 C                     0.68685  -0.5349   -0.09879 
 C                     1.31421  -1.73282  -0.01057 
 C                     0.86948   1.88743  -0.29787 
 C                    -0.54735   1.9453    0.28171 
 N                    -1.34475   0.69706  -0.06651 
 C                    -0.68069  -0.43819  -0.21009 
 C                    -2.64601   0.76073  -0.16255 
 C                    -3.42061  -0.30153  -0.40605 
 C                    -2.79597  -1.47517  -0.54112 
 C                    -1.45823  -1.52453  -0.43743 
 H                     3.10766  -2.86997   0.17109 
 H                     4.51639  -0.8499    0.16566 
 H                     3.39738   1.31544  -0.04238 
 H                     0.78331  -2.69496   0.01906 
 H                     1.49255   2.68741   0.16701 
 H                     0.82613   2.09085  -1.39503 
 H                    -0.4866    2.00726   1.39503 
 H                    -1.05703   2.86997  -0.07818 
 H                    -3.12613   1.74305  -0.0209 
 H                    -4.51639  -0.21666  -0.48011 
 H                    -3.38321  -2.38766  -0.74082 
 H                    -1.05717  -2.537    -0.58735 
 

 GradGradGradGradGradGradGradGradGradGradGradGradGradGradGradGradGradGrad
 Berny optimization.
 Initialization pass.
                           ----------------------------
                           !    Initial Parameters    !
                           ! (Angstroms and Degrees)  !
 --------------------------                            --------------------------
 ! Name  Definition              Value          Derivative Info.                !
 --------------------------------------------------------------------------------
 ! R1    R(1,2)                  1.3364         estimate D2E/DX2                !
 ! R2    R(1,6)                  1.3427         estimate D2E/DX2                !
 ! R3    R(1,15)                 1.1033         estimate D2E/DX2                !
 ! R4    R(2,3)                  1.3371         estimate D2E/DX2                !
 ! R5    R(2,16)                 1.1015         estimate D2E/DX2                !
 ! R6    R(3,4)                  1.3064         estimate D2E/DX2                !
 ! R7    R(3,17)                 1.1025         estimate D2E/DX2                !
 ! R8    R(4,5)                  1.323          estimate D2E/DX2                !
 ! R9    R(4,7)                  1.5216         estimate D2E/DX2                !
 ! R10   R(5,6)                  1.3551         estimate D2E/DX2                !
 ! R11   R(5,10)                 1.3755         estimate D2E/DX2                !
 ! R12   R(6,18)                 1.0993         estimate D2E/DX2                !
 ! R13   R(7,8)                  1.5319         estimate D2E/DX2                !
 ! R14   R(7,19)                 1.1155         estimate D2E/DX2                !
 ! R15   R(7,20)                 1.1167         estimate D2E/DX2                !
 ! R16   R(8,9)                  1.5216         estimate D2E/DX2                !
 ! R17   R(8,21)                 1.1167         estimate D2E/DX2                !
 ! R18   R(8,22)                 1.1155         estimate D2E/DX2                !
 ! R19   R(9,10)                 1.323          estimate D2E/DX2                !
 ! R20   R(9,11)                 1.3064         estimate D2E/DX2                !
 ! R21   R(10,14)                1.3551         estimate D2E/DX2                !
 ! R22   R(11,12)                1.337          estimate D2E/DX2                !
 ! R23   R(11,23)                1.1025         estimate D2E/DX2                !
 ! R24   R(12,13)                1.3364         estimate D2E/DX2                !
 ! R25   R(12,24)                1.1016         estimate D2E/DX2                !
 ! R26   R(13,14)                1.3427         estimate D2E/DX2                !
 ! R27   R(13,25)                1.1033         estimate D2E/DX2                !
 ! R28   R(14,26)                1.0993         estimate D2E/DX2                !
 ! A1    A(2,1,6)              119.3527         estimate D2E/DX2                !
 ! A2    A(2,1,15)             119.7251         estimate D2E/DX2                !
 ! A3    A(6,1,15)             120.9215         estimate D2E/DX2                !
 ! A4    A(1,2,3)              116.4461         estimate D2E/DX2                !
 ! A5    A(1,2,16)             121.7245         estimate D2E/DX2                !
 ! A6    A(3,2,16)             121.8258         estimate D2E/DX2                !
 ! A7    A(2,3,4)              123.4873         estimate D2E/DX2                !
 ! A8    A(2,3,17)             118.6178         estimate D2E/DX2                !
 ! A9    A(4,3,17)             117.8896         estimate D2E/DX2                !
 ! A10   A(3,4,5)              122.2629         estimate D2E/DX2                !
 ! A11   A(3,4,7)              119.9253         estimate D2E/DX2                !
 ! A12   A(5,4,7)              117.757          estimate D2E/DX2                !
 ! A13   A(4,5,6)              114.7138         estimate D2E/DX2                !
 ! A14   A(4,5,10)             123.4057         estimate D2E/DX2                !
 ! A15   A(6,5,10)             121.8503         estimate D2E/DX2                !
 ! A16   A(1,6,5)              123.7221         estimate D2E/DX2                !
 ! A17   A(1,6,18)             112.7575         estimate D2E/DX2                !
 ! A18   A(5,6,18)             123.4957         estimate D2E/DX2                !
 ! A19   A(4,7,8)              111.5395         estimate D2E/DX2                !
 ! A20   A(4,7,19)             111.5162         estimate D2E/DX2                !
 ! A21   A(4,7,20)             107.5898         estimate D2E/DX2                !
 ! A22   A(8,7,19)             109.3808         estimate D2E/DX2                !
 ! A23   A(8,7,20)             109.2041         estimate D2E/DX2                !
 ! A24   A(19,7,20)            107.4882         estimate D2E/DX2                !
 ! A25   A(7,8,9)              111.5386         estimate D2E/DX2                !
 ! A26   A(7,8,21)             109.2067         estimate D2E/DX2                !
 ! A27   A(7,8,22)             109.3809         estimate D2E/DX2                !
 ! A28   A(9,8,21)             107.5895         estimate D2E/DX2                !
 ! A29   A(9,8,22)             111.5152         estimate D2E/DX2                !
 ! A30   A(21,8,22)            107.4879         estimate D2E/DX2                !
 ! A31   A(8,9,10)             117.7573         estimate D2E/DX2                !
 ! A32   A(8,9,11)             119.925          estimate D2E/DX2                !
 ! A33   A(10,9,11)            122.2629         estimate D2E/DX2                !
 ! A34   A(5,10,9)             123.4067         estimate D2E/DX2                !
 ! A35   A(5,10,14)            121.849          estimate D2E/DX2                !
 ! A36   A(9,10,14)            114.714          estimate D2E/DX2                !
 ! A37   A(9,11,12)            123.4875         estimate D2E/DX2                !
 ! A38   A(9,11,23)            117.8888         estimate D2E/DX2                !
 ! A39   A(12,11,23)           118.6184         estimate D2E/DX2                !
 ! A40   A(11,12,13)           116.4458         estimate D2E/DX2                !
 ! A41   A(11,12,24)           121.8255         estimate D2E/DX2                !
 ! A42   A(13,12,24)           121.7251         estimate D2E/DX2                !
 ! A43   A(12,13,14)           119.3529         estimate D2E/DX2                !
 ! A44   A(12,13,25)           119.7246         estimate D2E/DX2                !
 ! A45   A(14,13,25)           120.9217         estimate D2E/DX2                !
 ! A46   A(10,14,13)           123.7218         estimate D2E/DX2                !
 ! A47   A(10,14,26)           123.496          estimate D2E/DX2                !
 ! A48   A(13,14,26)           112.7574         estimate D2E/DX2                !
 ! D1    D(6,1,2,3)             -0.4469         estimate D2E/DX2                !
 ! D2    D(6,1,2,16)          -179.7711         estimate D2E/DX2                !
 ! D3    D(15,1,2,3)           179.86           estimate D2E/DX2                !
 ! D4    D(15,1,2,16)            0.5359         estimate D2E/DX2                !
 ! D5    D(2,1,6,5)             -0.5398         estimate D2E/DX2                !
 ! D6    D(2,1,6,18)          -178.7822         estimate D2E/DX2                !
 ! D7    D(15,1,6,5)           179.1495         estimate D2E/DX2                !
 ! D8    D(15,1,6,18)            0.9071         estimate D2E/DX2                !
 ! D9    D(1,2,3,4)              0.5853         estimate D2E/DX2                !
 ! D10   D(1,2,3,17)          -178.5593         estimate D2E/DX2                !
 ! D11   D(16,2,3,4)           179.9087         estimate D2E/DX2                !
 ! D12   D(16,2,3,17)            0.7641         estimate D2E/DX2                !
 ! D13   D(2,3,4,5)              0.293          estimate D2E/DX2                !
 ! D14   D(2,3,4,7)           -176.9536         estimate D2E/DX2                !
 ! D15   D(17,3,4,5)           179.4434         estimate D2E/DX2                !
 ! D16   D(17,3,4,7)             2.1968         estimate D2E/DX2                !
 ! D17   D(3,4,5,6)             -1.2087         estimate D2E/DX2                !
 ! D18   D(3,4,5,10)          -179.2392         estimate D2E/DX2                !
 ! D19   D(7,4,5,6)            176.0947         estimate D2E/DX2                !
 ! D20   D(7,4,5,10)            -1.9358         estimate D2E/DX2                !
 ! D21   D(3,4,7,8)           -152.0538         estimate D2E/DX2                !
 ! D22   D(3,4,7,19)           -29.432          estimate D2E/DX2                !
 ! D23   D(3,4,7,20)            88.2035         estimate D2E/DX2                !
 ! D24   D(5,4,7,8)             30.5772         estimate D2E/DX2                !
 ! D25   D(5,4,7,19)           153.199          estimate D2E/DX2                !
 ! D26   D(5,4,7,20)           -89.1655         estimate D2E/DX2                !
 ! D27   D(4,5,6,1)              1.3476         estimate D2E/DX2                !
 ! D28   D(4,5,6,18)           179.4041         estimate D2E/DX2                !
 ! D29   D(10,5,6,1)           179.4121         estimate D2E/DX2                !
 ! D30   D(10,5,6,18)           -2.5314         estimate D2E/DX2                !
 ! D31   D(4,5,10,9)           -14.2236         estimate D2E/DX2                !
 ! D32   D(4,5,10,14)          167.8834         estimate D2E/DX2                !
 ! D33   D(6,5,10,9)           167.8826         estimate D2E/DX2                !
 ! D34   D(6,5,10,14)          -10.0104         estimate D2E/DX2                !
 ! D35   D(4,7,8,9)            -43.0541         estimate D2E/DX2                !
 ! D36   D(4,7,8,21)            75.7311         estimate D2E/DX2                !
 ! D37   D(4,7,8,22)          -166.8895         estimate D2E/DX2                !
 ! D38   D(19,7,8,9)          -166.8914         estimate D2E/DX2                !
 ! D39   D(19,7,8,21)          -48.1061         estimate D2E/DX2                !
 ! D40   D(19,7,8,22)           69.2733         estimate D2E/DX2                !
 ! D41   D(20,7,8,9)            75.7304         estimate D2E/DX2                !
 ! D42   D(20,7,8,21)         -165.4844         estimate D2E/DX2                !
 ! D43   D(20,7,8,22)          -48.105          estimate D2E/DX2                !
 ! D44   D(7,8,9,10)            30.5761         estimate D2E/DX2                !
 ! D45   D(7,8,9,11)          -152.0561         estimate D2E/DX2                !
 ! D46   D(21,8,9,10)          -89.1691         estimate D2E/DX2                !
 ! D47   D(21,8,9,11)           88.1988         estimate D2E/DX2                !
 ! D48   D(22,8,9,10)          153.1966         estimate D2E/DX2                !
 ! D49   D(22,8,9,11)          -29.4356         estimate D2E/DX2                !
 ! D50   D(8,9,10,5)            -1.9349         estimate D2E/DX2                !
 ! D51   D(8,9,10,14)          176.0949         estimate D2E/DX2                !
 ! D52   D(11,9,10,5)         -179.2371         estimate D2E/DX2                !
 ! D53   D(11,9,10,14)          -1.2072         estimate D2E/DX2                !
 ! D54   D(8,9,11,12)         -176.9523         estimate D2E/DX2                !
 ! D55   D(8,9,11,23)            2.1984         estimate D2E/DX2                !
 ! D56   D(10,9,11,12)           0.2931         estimate D2E/DX2                !
 ! D57   D(10,9,11,23)         179.4438         estimate D2E/DX2                !
 ! D58   D(5,10,14,13)         179.4085         estimate D2E/DX2                !
 ! D59   D(5,10,14,26)          -2.5333         estimate D2E/DX2                !
 ! D60   D(9,10,14,13)           1.3446         estimate D2E/DX2                !
 ! D61   D(9,10,14,26)         179.4029         estimate D2E/DX2                !
 ! D62   D(9,11,12,13)           0.5851         estimate D2E/DX2                !
 ! D63   D(9,11,12,24)         179.908          estimate D2E/DX2                !
 ! D64   D(23,11,12,13)       -178.5598         estimate D2E/DX2                !
 ! D65   D(23,11,12,24)          0.7631         estimate D2E/DX2                !
 ! D66   D(11,12,13,14)         -0.4482         estimate D2E/DX2                !
 ! D67   D(11,12,13,25)        179.8595         estimate D2E/DX2                !
 ! D68   D(24,12,13,14)       -179.7719         estimate D2E/DX2                !
 ! D69   D(24,12,13,25)          0.5359         estimate D2E/DX2                !
 ! D70   D(12,13,14,10)         -0.5367         estimate D2E/DX2                !
 ! D71   D(12,13,14,26)       -178.7808         estimate D2E/DX2                !
 ! D72   D(25,13,14,10)        179.1517         estimate D2E/DX2                !
 ! D73   D(25,13,14,26)          0.9076         estimate D2E/DX2                !
 --------------------------------------------------------------------------------
 Trust Radius=3.00D-01 FncErr=1.00D-07 GrdErr=1.00D-06
 Number of steps in this run=    156 maximum allowed number of steps=    156.
 GradGradGradGradGradGradGradGradGradGradGradGradGradGradGradGradGradGrad

                          Input orientation:                          
 ---------------------------------------------------------------------
 Center     Atomic      Atomic             Coordinates (Angstroms)
 Number     Number       Type             X           Y           Z
 ---------------------------------------------------------------------
      1          6           0        2.646082   -1.871290    0.087756
      2          6           0        3.419537   -0.781517    0.090561
      3          6           0        2.792083    0.394288   -0.016661
      4          7           0        1.494443    0.512993   -0.109390
      5          6           0        0.686848   -0.534895   -0.098787
      6          6           0        1.314208   -1.732822   -0.010570
      7          6           0        0.869479    1.887428   -0.297872
      8          6           0       -0.547349    1.945295    0.281705
      9          7           0       -1.344746    0.697062   -0.066509
     10          6           0       -0.680692   -0.438189   -0.210089
     11          6           0       -2.646006    0.760725   -0.162553
     12          6           0       -3.420614   -0.301532   -0.406054
     13          6           0       -2.795971   -1.475172   -0.541116
     14          6           0       -1.458233   -1.524526   -0.437431
     15          1           0        3.107658   -2.869970    0.171094
     16          1           0        4.516391   -0.849896    0.165662
     17          1           0        3.397375    1.315438   -0.042380
     18          1           0        0.783310   -2.694958    0.019058
     19          1           0        1.492550    2.687411    0.167014
     20          1           0        0.826125    2.090849   -1.395031
     21          1           0       -0.486595    2.007265    1.395031
     22          1           0       -1.057028    2.869970   -0.078176
     23          1           0       -3.126131    1.743049   -0.020899
     24          1           0       -4.516391   -0.216659   -0.480107
     25          1           0       -3.383212   -2.387655   -0.740823
     26          1           0       -1.057166   -2.536997   -0.587352
 ---------------------------------------------------------------------
                    Distance matrix (angstroms):
                    1          2          3          4          5
     1  C    0.000000
     2  C    1.336355   0.000000
     3  C    2.272677   1.337054   0.000000
     4  N    2.655173   2.328459   1.306353   0.000000
     5  C    2.378938   2.750321   2.302638   1.323024   0.000000
     6  C    1.342658   2.312492   2.590125   2.255202   1.355135
     7  C    4.175283   3.711731   2.450501   1.521571   2.437342
     8  C    4.980154   4.817491   3.694110   2.524551   2.796312
     9  N    4.748362   4.990918   4.148194   2.845473   2.376160
    10  C    3.634545   4.125548   3.576395   2.376152   1.375466
    11  C    5.915772   6.263656   5.452373   4.148194   3.576397
    12  C    6.285920   6.874931   6.263657   4.990916   4.125544
    13  C    5.492570   6.285914   5.915765   4.748351   3.634529
    14  C    4.152285   4.962205   4.682316   3.602414   2.386508
    15  H    1.103340   2.113147   3.284847   3.758400   3.374275
    16  H    2.132457   1.101546   2.134121   3.326453   3.851566
    17  H    3.276677   2.101282   1.102523   2.066291   3.282357
    18  H    2.037908   3.258230   3.685090   3.288337   2.165425
    19  H    4.703049   3.968953   2.642146   2.191916   3.332126
    20  H    4.605371   4.145269   2.939934   2.142230   2.931583
    21  H    5.154204   4.973612   3.917180   2.901834   3.173490
    22  H    6.018314   5.779400   4.576947   3.473661   3.825524
    23  H    6.811292   7.016525   6.069961   4.782319   4.442286
    24  H    7.373011   7.976445   7.348594   6.066296   5.226890
    25  H    6.107828   7.039053   6.811599   5.709990   4.517778
    26  H    3.822693   4.856145   4.871841   4.005196   2.699758
                    6          7          8          9         10
     6  C    0.000000
     7  C    3.658762   0.000000
     8  C    4.132719   1.531881   0.000000
     9  N    3.602430   2.524538   1.521572   0.000000
    10  C    2.386526   2.796289   2.437342   1.323018   0.000000
    11  C    4.682325   3.694104   2.450496   1.306352   2.302632
    12  C    4.962211   4.817483   3.711724   2.328456   2.750318
    13  C    4.152281   4.980138   4.175276   2.655166   2.378932
    14  C    2.812832   4.132693   3.658760   2.255197   1.355132
    15  H    2.131331   5.278467   6.046328   5.709998   4.517793
    16  H    3.326348   4.583424   5.785155   6.066293   5.226888
    17  H    3.692220   2.604363   4.007817   4.782330   4.442293
    18  H    1.099289   4.594141   4.834417   4.005215   2.699781
    19  H    4.427392   1.115486   2.173724   3.473654   3.825515
    20  H    4.095780   1.116699   2.172340   2.901774   3.173424
    21  H    4.382563   2.172376   1.116703   2.142231   2.931609
    22  H    5.178129   2.173726   1.115487   2.191905   3.332108
    23  H    5.639007   4.007800   2.604340   2.066277   3.282341
    24  H    6.042773   5.785152   4.583415   3.326452   3.851567
    25  H    4.798732   6.046315   5.278460   3.758394   3.374272
    26  H    2.569589   4.834387   4.594139   3.288330   2.165423
                   11         12         13         14         15
    11  C    0.000000
    12  C    1.337049   0.000000
    13  C    2.272671   1.336358   0.000000
    14  C    2.590123   2.312496   1.342658   0.000000
    15  H    6.811602   7.039056   6.107826   4.798738   0.000000
    16  H    7.348589   7.976441   7.373001   6.042763   2.462774
    17  H    6.069975   7.016539   6.811298   5.639006   4.200851
    18  H    4.871851   4.856149   3.822686   2.569593   2.335881
    19  H    4.576940   5.779392   6.018302   5.178116   5.787320
    20  H    3.917132   4.973566   5.154149   4.382491   5.680481
    21  H    2.939896   4.145228   4.605350   4.095796   6.180946
    22  H    2.642136   3.968938   4.703030   4.427372   7.096031
    23  H    1.102518   2.101280   3.276672   3.692212   7.757379
    24  H    2.134118   1.101551   2.132469   3.326360   8.098780
    25  H    3.284839   2.113144   1.103340   2.131334   6.572337
    26  H    3.685083   3.258229   2.037904   1.099285   4.246395
                   16         17         18         19         20
    16  H    0.000000
    17  H    2.446252   0.000000
    18  H    4.166730   4.787524   0.000000
    19  H    4.653618   2.356802   5.430912   0.000000
    20  H    4.970091   3.007034   4.990534   1.799998   0.000000
    21  H    5.891060   4.198809   5.061310   2.426446   3.084585
    22  H    6.705211   4.718004   5.862143   2.567838   2.426397
    23  H    8.072565   6.537541   5.914493   4.717981   4.198754
    24  H    9.077949   8.072584   5.871794   6.705204   5.891023
    25  H    8.098774   7.757389   4.246382   7.096021   6.180898
    26  H    5.871787   5.914489   1.944232   5.862129   5.061234
                   21         22         23         24         25
    21  H    0.000000
    22  H    1.799998   0.000000
    23  H    3.006962   2.356781   0.000000
    24  H    4.970034   4.653603   2.446252   0.000000
    25  H    5.680456   5.787301   4.200845   2.462781   0.000000
    26  H    4.990562   5.430889   4.787513   4.166738   2.335882
                   26
    26  H    0.000000
 Stoichiometry    C12H12N2(2+)
 Framework group  C1[X(C12H12N2)]
 Deg. of freedom    72
 Full point group                 C1      NOp   1
 Largest Abelian subgroup         C1      NOp   1
 Largest concise Abelian subgroup C1      NOp   1
                         Standard orientation:                         
 ---------------------------------------------------------------------
 Center     Atomic      Atomic             Coordinates (Angstroms)
 Number     Number       Type             X           Y           Z
 ---------------------------------------------------------------------
      1          6           0       -2.742458   -1.552843   -0.145082
      2          6           0       -3.437284   -0.416597   -0.035501
      3          6           0       -2.724487    0.706918    0.096206
      4          7           0       -1.418496    0.734542    0.109747
      5          6           0       -0.687608   -0.361408   -0.013082
      6          6           0       -1.400666   -1.508116   -0.127108
      7          6           0       -0.689390    2.051128    0.333763
      8          6           0        0.689407    2.051133   -0.333754
      9          7           0        1.418500    0.734540   -0.109732
     10          6           0        0.687608   -0.361400    0.013116
     11          6           0        2.724489    0.706904   -0.096228
     12          6           0        3.437281   -0.416612    0.035455
     13          6           0        2.742444   -1.552852    0.145056
     14          6           0        1.400651   -1.508111    0.127150
     15          1           0       -3.276350   -2.512252   -0.253949
     16          1           0       -4.538781   -0.408315   -0.041879
     17          1           0       -3.261786    1.662471    0.213620
     18          1           0       -0.940519   -2.499382   -0.245822
     19          1           0       -1.283177    2.916922   -0.043236
     20          1           0       -0.564162    2.184345    1.435393
     21          1           0        0.564228    2.184368   -1.435391
     22          1           0        1.283204    2.916908    0.043275
     23          1           0        3.261778    1.662455   -0.213650
     24          1           0        4.538783   -0.408332    0.041789
     25          1           0        3.276337   -2.512264    0.253897
     26          1           0        0.940503   -2.499369    0.245899
 ---------------------------------------------------------------------
 Rotational constants (GHZ):      1.6072023      0.5826271      0.4339759
 Standard basis: 6-311++G(d,p) (5D, 7F)
 There are   406 symmetry adapted cartesian basis functions of A   symmetry.
 There are   392 symmetry adapted basis functions of A   symmetry.
   392 basis functions,   612 primitive gaussians,   406 cartesian basis functions
    48 alpha electrons       48 beta electrons
       nuclear repulsion energy       871.1598762478 Hartrees.
 NAtoms=   26 NActive=   26 NUniq=   26 SFac= 1.00D+00 NAtFMM=   60 NAOKFM=F Big=F
 Integral buffers will be    131072 words long.
 Raffenetti 2 integral format.
 Two-electron integral symmetry is turned on.
 One-electron integrals computed using PRISM.
 NBasis=   392 RedAO= T EigKep=  2.12D-06  NBF=   392
 NBsUse=   389 1.00D-06 EigRej=  8.44D-07 NBFU=   389
 ExpMin= 3.60D-02 ExpMax= 6.29D+03 ExpMxC= 9.49D+02 IAcc=3 IRadAn=         5 AccDes= 0.00D+00
 Harris functional with IExCor=  402 and IRadAn=       5 diagonalized for initial guess.
 HarFok:  IExCor=  402 AccDes= 0.00D+00 IRadAn=         5 IDoV= 1 UseB2=F ITyADJ=14
 ICtDFT=  3500011 ScaDFX=  1.000000  1.000000  1.000000  1.000000
 FoFCou: FMM=F IPFlag=           0 FMFlag=      100000 FMFlg1=           0
         NFxFlg=           0 DoJE=T BraDBF=F KetDBF=T FulRan=T
         wScrn=  0.000000 ICntrl=     500 IOpCl=  0 I1Cent=   200000004 NGrid=           0
         NMat0=    1 NMatS0=      1 NMatT0=    0 NMatD0=    1 NMtDS0=    0 NMtDT0=    0
 Petite list used in FoFCou.
 Keep R1 ints in memory in canonical form, NReq=3000928476.
 Requested convergence on RMS density matrix=1.00D-08 within 128 cycles.
 Requested convergence on MAX density matrix=1.00D-06.
 Requested convergence on             energy=1.00D-06.
 No special actions if energy rises.
 SCF Done:  E(RB3LYP) =  -573.512193549     A.U. after   13 cycles
            NFock= 13  Conv=0.37D-08     -V/T= 2.0021

 **********************************************************************

            Population analysis using the SCF density.

 **********************************************************************

 Orbital symmetries:
       Occupied  (A) (A) (A) (A) (A) (A) (A) (A) (A) (A) (A) (A)
                 (A) (A) (A) (A) (A) (A) (A) (A) (A) (A) (A) (A)
                 (A) (A) (A) (A) (A) (A) (A) (A) (A) (A) (A) (A)
                 (A) (A) (A) (A) (A) (A) (A) (A) (A) (A) (A) (A)
       Virtual   (A) (A) (A) (A) (A) (A) (A) (A) (A) (A) (A) (A)
                 (A) (A) (A) (A) (A) (A) (A) (A) (A) (A) (A) (A)
                 (A) (A) (A) (A) (A) (A) (A) (A) (A) (A) (A) (A)
                 (A) (A) (A) (A) (A) (A) (A) (A) (A) (A) (A) (A)
                 (A) (A) (A) (A) (A) (A) (A) (A) (A) (A) (A) (A)
                 (A) (A) (A) (A) (A) (A) (A) (A) (A) (A) (A) (A)
                 (A) (A) (A) (A) (A) (A) (A) (A) (A) (A) (A) (A)
                 (A) (A) (A) (A) (A) (A) (A) (A) (A) (A) (A) (A)
                 (A) (A) (A) (A) (A) (A) (A) (A) (A) (A) (A) (A)
                 (A) (A) (A) (A) (A) (A) (A) (A) (A) (A) (A) (A)
                 (A) (A) (A) (A) (A) (A) (A) (A) (A) (A) (A) (A)
                 (A) (A) (A) (A) (A) (A) (A) (A) (A) (A) (A) (A)
                 (A) (A) (A) (A) (A) (A) (A) (A) (A) (A) (A) (A)
                 (A) (A) (A) (A) (A) (A) (A) (A) (A) (A) (A) (A)
                 (A) (A) (A) (A) (A) (A) (A) (A) (A) (A) (A) (A)
                 (A) (A) (A) (A) (A) (A) (A) (A) (A) (A) (A) (A)
                 (A) (A) (A) (A) (A) (A) (A) (A) (A) (A) (A) (A)
                 (A) (A) (A) (A) (A) (A) (A) (A) (A) (A) (A) (A)
                 (A) (A) (A) (A) (A) (A) (A) (A) (A) (A) (A) (A)
                 (A) (A) (A) (A) (A) (A) (A) (A) (A) (A) (A) (A)
                 (A) (A) (A) (A) (A) (A) (A) (A) (A) (A) (A) (A)
                 (A) (A) (A) (A) (A) (A) (A) (A) (A) (A) (A) (A)
                 (A) (A) (A) (A) (A) (A) (A) (A) (A) (A) (A) (A)
                 (A) (A) (A) (A) (A) (A) (A) (A) (A) (A) (A) (A)
                 (A) (A) (A) (A) (A) (A) (A) (A) (A) (A) (A) (A)
                 (A) (A) (A) (A) (A) (A) (A) (A) (A) (A) (A) (A)
                 (A) (A) (A) (A) (A) (A) (A) (A) (A) (A) (A) (A)
                 (A) (A) (A) (A) (A) (A) (A) (A) (A) (A) (A) (A)
                 (A) (A) (A) (A) (A)
 The electronic state is 1-A.
 Alpha  occ. eigenvalues --  -14.73235 -14.73233 -10.55941 -10.55879 -10.54822
 Alpha  occ. eigenvalues --  -10.54800 -10.53816 -10.53816 -10.49517 -10.49516
 Alpha  occ. eigenvalues --  -10.49048 -10.49047 -10.48463 -10.48463  -1.37720
 Alpha  occ. eigenvalues --   -1.34780  -1.18215  -1.17003  -1.15740  -1.09640
 Alpha  occ. eigenvalues --   -1.09286  -1.01186  -1.00449  -0.99501  -0.96756
 Alpha  occ. eigenvalues --   -0.91241  -0.90455  -0.85999  -0.84396  -0.83012
 Alpha  occ. eigenvalues --   -0.81095  -0.80152  -0.78841  -0.78159  -0.76885
 Alpha  occ. eigenvalues --   -0.76701  -0.75523  -0.73572  -0.72407  -0.68998
 Alpha  occ. eigenvalues --   -0.68774  -0.68680  -0.67418  -0.66052  -0.63943
 Alpha  occ. eigenvalues --   -0.62807  -0.61847  -0.57018
 Alpha virt. eigenvalues --   -0.40176  -0.34912  -0.34321  -0.28748  -0.26412
 Alpha virt. eigenvalues --   -0.24764  -0.23106  -0.22999  -0.22113  -0.21471
 Alpha virt. eigenvalues --   -0.20439  -0.19636  -0.19620  -0.19128  -0.17887
 Alpha virt. eigenvalues --   -0.17685  -0.17120  -0.17111  -0.16974  -0.16786
 Alpha virt. eigenvalues --   -0.15386  -0.14445  -0.13987  -0.13509  -0.13505
 Alpha virt. eigenvalues --   -0.13329  -0.12572  -0.11418  -0.11315  -0.11022
 Alpha virt. eigenvalues --   -0.10278  -0.09943  -0.09394  -0.09045  -0.09030
 Alpha virt. eigenvalues --   -0.08560  -0.08341  -0.07979  -0.07755  -0.07744
 Alpha virt. eigenvalues --   -0.07649  -0.07134  -0.06596  -0.06507  -0.06176
 Alpha virt. eigenvalues --   -0.06126  -0.05639  -0.04792  -0.04609  -0.04544
 Alpha virt. eigenvalues --   -0.03609  -0.03338  -0.03328  -0.03083  -0.02630
 Alpha virt. eigenvalues --   -0.02315  -0.01728  -0.01474  -0.01068  -0.00543
 Alpha virt. eigenvalues --   -0.00444   0.00105   0.00451   0.01481   0.01713
 Alpha virt. eigenvalues --    0.01820   0.02500   0.03175   0.03677   0.03841
 Alpha virt. eigenvalues --    0.04029   0.04581   0.04698   0.05481   0.05890
 Alpha virt. eigenvalues --    0.06788   0.06953   0.07022   0.07900   0.08266
 Alpha virt. eigenvalues --    0.08666   0.09080   0.09301   0.09588   0.09665
 Alpha virt. eigenvalues --    0.10331   0.11678   0.13212   0.13541   0.13706
 Alpha virt. eigenvalues --    0.13980   0.14736   0.15593   0.16466   0.18275
 Alpha virt. eigenvalues --    0.20704   0.21695   0.23582   0.24580   0.24732
 Alpha virt. eigenvalues --    0.25714   0.26343   0.27559   0.28243   0.28244
 Alpha virt. eigenvalues --    0.29291   0.29672   0.31226   0.31640   0.31703
 Alpha virt. eigenvalues --    0.32041   0.32300   0.32362   0.33154   0.35247
 Alpha virt. eigenvalues --    0.35814   0.36940   0.37583   0.38084   0.39382
 Alpha virt. eigenvalues --    0.40165   0.40867   0.41029   0.42658   0.43220
 Alpha virt. eigenvalues --    0.43257   0.44608   0.45453   0.46601   0.46875
 Alpha virt. eigenvalues --    0.48269   0.48926   0.49631   0.49756   0.50993
 Alpha virt. eigenvalues --    0.52098   0.53062   0.53198   0.54470   0.54783
 Alpha virt. eigenvalues --    0.57391   0.58037   0.58971   0.60001   0.60791
 Alpha virt. eigenvalues --    0.61385   0.61437   0.61718   0.62603   0.64046
 Alpha virt. eigenvalues --    0.65202   0.65488   0.68342   0.68871   0.70296
 Alpha virt. eigenvalues --    0.71049   0.72197   0.73354   0.73446   0.74869
 Alpha virt. eigenvalues --    0.75460   0.78374   0.78387   0.81165   0.81362
 Alpha virt. eigenvalues --    0.82511   0.82801   0.86637   0.87361   0.88043
 Alpha virt. eigenvalues --    0.88174   0.91012   0.93744   0.95833   1.01784
 Alpha virt. eigenvalues --    1.06029   1.06155   1.11948   1.15008   1.16283
 Alpha virt. eigenvalues --    1.16887   1.17752   1.22429   1.22801   1.23845
 Alpha virt. eigenvalues --    1.25628   1.26929   1.27261   1.27571   1.28550
 Alpha virt. eigenvalues --    1.30149   1.30638   1.30768   1.31333   1.32325
 Alpha virt. eigenvalues --    1.33593   1.35538   1.35607   1.36678   1.37163
 Alpha virt. eigenvalues --    1.40300   1.41516   1.41714   1.42605   1.43472
 Alpha virt. eigenvalues --    1.44642   1.44792   1.45883   1.46381   1.47142
 Alpha virt. eigenvalues --    1.47675   1.51414   1.52791   1.54929   1.55652
 Alpha virt. eigenvalues --    1.58584   1.59839   1.63424   1.63488   1.64279
 Alpha virt. eigenvalues --    1.65049   1.66298   1.66662   1.69661   1.70010
 Alpha virt. eigenvalues --    1.70161   1.73408   1.73725   1.76300   1.76869
 Alpha virt. eigenvalues --    1.78098   1.78125   1.80820   1.81513   1.86914
 Alpha virt. eigenvalues --    1.87713   1.89016   1.89938   1.92041   1.93158
 Alpha virt. eigenvalues --    1.96778   1.97425   2.00045   2.04641   2.09398
 Alpha virt. eigenvalues --    2.11904   2.12871   2.15773   2.15908   2.16807
 Alpha virt. eigenvalues --    2.17995   2.20571   2.22295   2.24909   2.24933
 Alpha virt. eigenvalues --    2.29156   2.30118   2.30393   2.31132   2.37116
 Alpha virt. eigenvalues --    2.37557   2.40934   2.41813   2.43328   2.44050
 Alpha virt. eigenvalues --    2.45232   2.45389   2.47439   2.47663   2.49019
 Alpha virt. eigenvalues --    2.49076   2.49379   2.50256   2.51289   2.52229
 Alpha virt. eigenvalues --    2.54270   2.54675   2.55164   2.56260   2.57784
 Alpha virt. eigenvalues --    2.58466   2.59813   2.62231   2.64068   2.65244
 Alpha virt. eigenvalues --    2.68344   2.70385   2.73507   2.73510   2.77332
 Alpha virt. eigenvalues --    2.77390   2.80452   2.92256   2.99345   3.03969
 Alpha virt. eigenvalues --    3.05621   3.08697   3.12850   3.18313   3.19859
 Alpha virt. eigenvalues --    3.20590   3.25738   3.26970   3.31061   3.31692
 Alpha virt. eigenvalues --    3.36009   3.44329   3.45790   3.46020   3.53962
 Alpha virt. eigenvalues --    3.57257   3.60540   3.63102   3.65319   3.65964
 Alpha virt. eigenvalues --    3.73824   3.73934   3.79176   3.79725   3.83080
 Alpha virt. eigenvalues --    3.98723   4.12781   4.40039   4.47743   4.63539
 Alpha virt. eigenvalues --    4.95509   5.06619  23.31038  23.45916  23.52552
 Alpha virt. eigenvalues --   23.54153  23.66531  23.74580  23.80374  23.87055
 Alpha virt. eigenvalues --   23.92883  23.94018  24.04652  24.05859  35.30622
 Alpha virt. eigenvalues --   35.38020
          Condensed to atoms (all electrons):
               1          2          3          4          5          6
     1  C    6.811125   0.327892   0.162922  -0.230095  -1.078769   0.918653
     2  C    0.327892   7.258074  -0.906765  -0.206630   1.341418  -1.450624
     3  C    0.162922  -0.906765   6.417624   0.422895  -1.274619   0.712608
     4  N   -0.230095  -0.206630   0.422895   6.868015   0.061931  -0.171042
     5  C   -1.078769   1.341418  -1.274619   0.061931   7.791170  -0.647619
     6  C    0.918653  -1.450624   0.712608  -0.171042  -0.647619   7.361037
     7  C   -0.178829  -0.011935  -0.183197   0.161643  -0.203281  -0.252131
     8  C    0.041812  -0.044808   0.066075  -0.010373   0.217552   0.074191
     9  N    0.031821   0.046490  -0.088976  -0.131819  -0.024143   0.027044
    10  C   -0.237428   0.105526  -0.164586  -0.024128   0.480851  -0.264420
    11  C    0.005191  -0.032766   0.061789  -0.088975  -0.164657  -0.005788
    12  C   -0.009453   0.030435  -0.032767   0.046486   0.105580  -0.106252
    13  C   -0.221369  -0.009469   0.005200   0.031822  -0.237422  -0.445292
    14  C   -0.445216  -0.106291  -0.005778   0.027029  -0.264391   0.030837
    15  H    0.312114  -0.027684  -0.001297  -0.000674   0.037050  -0.006454
    16  H   -0.033020   0.448112  -0.069176   0.012814   0.028192  -0.044586
    17  H    0.010245  -0.053061   0.409028  -0.057039  -0.034816   0.031455
    18  H   -0.054830  -0.080931   0.060204   0.037634  -0.058478   0.460597
    19  H   -0.003897   0.028021  -0.022827  -0.055147   0.047177  -0.008869
    20  H   -0.018652   0.004521  -0.047005  -0.002767  -0.038903  -0.014744
    21  H    0.008978  -0.003249  -0.019290   0.002665   0.011156   0.025284
    22  H   -0.007825   0.002672  -0.000547   0.020267  -0.007923  -0.015974
    23  H    0.001939  -0.001565   0.003803  -0.002793   0.010617   0.006565
    24  H   -0.001360   0.000378  -0.000566   0.001128  -0.005785  -0.006258
    25  H    0.000587  -0.002420   0.002565   0.000455  -0.004068   0.016189
    26  H   -0.002466   0.021020  -0.024812  -0.013934  -0.051284   0.020134
               7          8          9         10         11         12
     1  C   -0.178829   0.041812   0.031821  -0.237428   0.005191  -0.009453
     2  C   -0.011935  -0.044808   0.046490   0.105526  -0.032766   0.030435
     3  C   -0.183197   0.066075  -0.088976  -0.164586   0.061789  -0.032767
     4  N    0.161643  -0.010373  -0.131819  -0.024128  -0.088975   0.046486
     5  C   -0.203281   0.217552  -0.024143   0.480851  -0.164657   0.105580
     6  C   -0.252131   0.074191   0.027044  -0.264420  -0.005788  -0.106252
     7  C    6.443972  -0.531680  -0.010377   0.217555   0.066061  -0.044808
     8  C   -0.531680   6.443973   0.161650  -0.203283  -0.183188  -0.011951
     9  N   -0.010377   0.161650   6.868029   0.061910   0.422896  -0.206626
    10  C    0.217555  -0.203283   0.061910   7.791134  -1.274662   1.341483
    11  C    0.066061  -0.183188   0.422896  -1.274662   6.417682  -0.906793
    12  C   -0.044808  -0.011951  -0.206626   1.341483  -0.906793   7.258017
    13  C    0.041814  -0.178857  -0.230109  -1.078754   0.163006   0.327786
    14  C    0.074182  -0.252132  -0.171030  -0.647571   0.712606  -1.450579
    15  H   -0.001599  -0.000990   0.000455  -0.004069   0.002565  -0.002419
    16  H    0.003430   0.002362   0.001128  -0.005786  -0.000566   0.000378
    17  H    0.002374  -0.005305  -0.002793   0.010619   0.003803  -0.001565
    18  H    0.000165   0.002847  -0.013934  -0.051265  -0.024809   0.021014
    19  H    0.414391  -0.043564   0.020268  -0.007927  -0.000549   0.002673
    20  H    0.438335  -0.035042   0.002669   0.011152  -0.019291  -0.003250
    21  H   -0.035030   0.438325  -0.002763  -0.038905  -0.047006   0.004523
    22  H   -0.043566   0.414393  -0.055148   0.047175  -0.022825   0.028018
    23  H   -0.005308   0.002375  -0.057040  -0.034818   0.409026  -0.053053
    24  H    0.002363   0.003430   0.012814   0.028195  -0.069172   0.448109
    25  H   -0.000990  -0.001599  -0.000675   0.037045  -0.001301  -0.027672
    26  H    0.002848   0.000167   0.037635  -0.058486   0.060205  -0.080923
              13         14         15         16         17         18
     1  C   -0.221369  -0.445216   0.312114  -0.033020   0.010245  -0.054830
     2  C   -0.009469  -0.106291  -0.027684   0.448112  -0.053061  -0.080931
     3  C    0.005200  -0.005778  -0.001297  -0.069176   0.409028   0.060204
     4  N    0.031822   0.027029  -0.000674   0.012814  -0.057039   0.037634
     5  C   -0.237422  -0.264391   0.037050   0.028192  -0.034816  -0.058478
     6  C   -0.445292   0.030837  -0.006454  -0.044586   0.031455   0.460597
     7  C    0.041814   0.074182  -0.001599   0.003430   0.002374   0.000165
     8  C   -0.178857  -0.252132  -0.000990   0.002362  -0.005305   0.002847
     9  N   -0.230109  -0.171030   0.000455   0.001128  -0.002793  -0.013934
    10  C   -1.078754  -0.647571  -0.004069  -0.005786   0.010619  -0.051265
    11  C    0.163006   0.712606   0.002565  -0.000566   0.003803  -0.024809
    12  C    0.327786  -1.450579  -0.002419   0.000378  -0.001565   0.021014
    13  C    6.811308   0.918580   0.000589  -0.001360   0.001939  -0.002477
    14  C    0.918580   7.360939   0.016192  -0.006259   0.006564   0.020121
    15  H    0.000589   0.016192   0.411195  -0.008012   0.001605  -0.010022
    16  H   -0.001360  -0.006259  -0.008012   0.403298  -0.009214   0.000185
    17  H    0.001939   0.006564   0.001605  -0.009214   0.415518   0.000323
    18  H   -0.002477   0.020121  -0.010022   0.000185   0.000323   0.494022
    19  H   -0.007827  -0.015974  -0.000556   0.001861  -0.002864  -0.000328
    20  H    0.008979   0.025285  -0.000034   0.000376  -0.002370  -0.000407
    21  H   -0.018655  -0.014741  -0.000130   0.000241  -0.001890   0.001224
    22  H   -0.003895  -0.008868  -0.000045   0.000034   0.000395   0.000290
    23  H    0.010246   0.031454   0.000053  -0.000006   0.000220  -0.000217
    24  H   -0.033026  -0.044586  -0.000028   0.000008  -0.000006   0.000093
    25  H    0.312121  -0.006460   0.000146  -0.000028   0.000053   0.000790
    26  H   -0.054837   0.460589   0.000790   0.000093  -0.000217  -0.016471
              19         20         21         22         23         24
     1  C   -0.003897  -0.018652   0.008978  -0.007825   0.001939  -0.001360
     2  C    0.028021   0.004521  -0.003249   0.002672  -0.001565   0.000378
     3  C   -0.022827  -0.047005  -0.019290  -0.000547   0.003803  -0.000566
     4  N   -0.055147  -0.002767   0.002665   0.020267  -0.002793   0.001128
     5  C    0.047177  -0.038903   0.011156  -0.007923   0.010617  -0.005785
     6  C   -0.008869  -0.014744   0.025284  -0.015974   0.006565  -0.006258
     7  C    0.414391   0.438335  -0.035030  -0.043566  -0.005308   0.002363
     8  C   -0.043564  -0.035042   0.438325   0.414393   0.002375   0.003430
     9  N    0.020268   0.002669  -0.002763  -0.055148  -0.057040   0.012814
    10  C   -0.007927   0.011152  -0.038905   0.047175  -0.034818   0.028195
    11  C   -0.000549  -0.019291  -0.047006  -0.022825   0.409026  -0.069172
    12  C    0.002673  -0.003250   0.004523   0.028018  -0.053053   0.448109
    13  C   -0.007827   0.008979  -0.018655  -0.003895   0.010246  -0.033026
    14  C   -0.015974   0.025285  -0.014741  -0.008868   0.031454  -0.044586
    15  H   -0.000556  -0.000034  -0.000130  -0.000045   0.000053  -0.000028
    16  H    0.001861   0.000376   0.000241   0.000034  -0.000006   0.000008
    17  H   -0.002864  -0.002370  -0.001890   0.000395   0.000220  -0.000006
    18  H   -0.000328  -0.000407   0.001224   0.000290  -0.000217   0.000093
    19  H    0.408736  -0.006790   0.002789  -0.007039   0.000395   0.000034
    20  H   -0.006790   0.383201   0.002729   0.002787  -0.001890   0.000241
    21  H    0.002789   0.002729   0.383201  -0.006792  -0.002371   0.000376
    22  H   -0.007039   0.002787  -0.006792   0.408736  -0.002863   0.001861
    23  H    0.000395  -0.001890  -0.002371  -0.002863   0.415519  -0.009214
    24  H    0.000034   0.000241   0.000376   0.001861  -0.009214   0.403298
    25  H   -0.000045  -0.000130  -0.000034  -0.000556   0.001605  -0.008012
    26  H    0.000290   0.001224  -0.000407  -0.000328   0.000323   0.000185
              25         26
     1  C    0.000587  -0.002466
     2  C   -0.002420   0.021020
     3  C    0.002565  -0.024812
     4  N    0.000455  -0.013934
     5  C   -0.004068  -0.051284
     6  C    0.016189   0.020134
     7  C   -0.000990   0.002848
     8  C   -0.001599   0.000167
     9  N   -0.000675   0.037635
    10  C    0.037045  -0.058486
    11  C   -0.001301   0.060205
    12  C   -0.027672  -0.080923
    13  C    0.312121  -0.054837
    14  C   -0.006460   0.460589
    15  H    0.000146   0.000790
    16  H   -0.000028   0.000093
    17  H    0.000053  -0.000217
    18  H    0.000790  -0.016471
    19  H   -0.000045   0.000290
    20  H   -0.000130   0.001224
    21  H   -0.000034  -0.000407
    22  H   -0.000556  -0.000328
    23  H    0.001605   0.000323
    24  H   -0.008012   0.000185
    25  H    0.411194  -0.010024
    26  H   -0.010024   0.494025
 Mulliken charges:
               1
     1  C   -0.110067
     2  C   -0.676362
     3  C    0.517495
     4  N    0.300631
     5  C   -0.036537
     6  C   -0.244541
     7  C   -0.366403
     8  C   -0.366382
     9  N    0.300624
    10  C   -0.036558
    11  C    0.517517
    12  C   -0.676392
    13  C   -0.110038
    14  C   -0.244505
    15  H    0.281260
    16  H    0.275499
    17  H    0.277000
    18  H    0.214661
    19  H    0.257564
    20  H    0.309774
    21  H    0.309772
    22  H    0.257566
    23  H    0.276999
    24  H    0.275498
    25  H    0.281263
    26  H    0.214661
 Sum of Mulliken charges =   2.00000
 Mulliken charges with hydrogens summed into heavy atoms:
               1
     1  C    0.171193
     2  C   -0.400863
     3  C    0.794495
     4  N    0.300631
     5  C   -0.036537
     6  C   -0.029880
     7  C    0.200936
     8  C    0.200955
     9  N    0.300624
    10  C   -0.036558
    11  C    0.794516
    12  C   -0.400894
    13  C    0.171225
    14  C   -0.029844
 Electronic spatial extent (au):  <R**2>=           2453.2996
 Charge=              2.0000 electrons
 Dipole moment (field-independent basis, Debye):
    X=              0.0000    Y=              1.5680    Z=             -0.0001  Tot=              1.5680
 Quadrupole moment (field-independent basis, Debye-Ang):
   XX=             -5.2996   YY=            -38.4634   ZZ=            -77.0414
   XY=              0.0000   XZ=             -0.0547   YZ=              0.0000
 Traceless Quadrupole moment (field-independent basis, Debye-Ang):
   XX=             34.9686   YY=              1.8047   ZZ=            -36.7733
   XY=              0.0000   XZ=             -0.0547   YZ=              0.0000
 Octapole moment (field-independent basis, Debye-Ang**2):
  XXX=             -0.0005  YYY=             11.4854  ZZZ=              0.0000  XYY=              0.0000
  XXY=            -21.1863  XXZ=             -0.0024  XZZ=              0.0001  YZZ=              8.4262
  YYZ=              0.0001  XYZ=             -8.0729
 Hexadecapole moment (field-independent basis, Debye-Ang**3):
 XXXX=          -1217.2943 YYYY=           -638.3933 ZZZZ=           -100.0736 XXXY=             -0.0015
 XXXZ=              8.2982 YYYX=              0.0002 YYYZ=              0.0000 ZZZX=             -3.8286
 ZZZY=             -0.0001 XXYY=           -339.5572 XXZZ=           -415.9955 YYZZ=           -160.5321
 XXYZ=              0.0016 YYXZ=              6.3079 ZZXY=              0.0007
 N-N= 8.711598762478D+02 E-N=-3.042750317196D+03  KE= 5.723309198637D+02

 **********************************************************************

            Electrostatic Properties Using The SCF Density

 **********************************************************************

       Atomic Center    1 is at  -2.742458 -1.552843 -0.145082
       Atomic Center    2 is at  -3.437284 -0.416597 -0.035501
       Atomic Center    3 is at  -2.724487  0.706918  0.096206
       Atomic Center    4 is at  -1.418496  0.734542  0.109747
       Atomic Center    5 is at  -0.687608 -0.361408 -0.013082
       Atomic Center    6 is at  -1.400666 -1.508116 -0.127108
       Atomic Center    7 is at  -0.689390  2.051128  0.333763
       Atomic Center    8 is at   0.689407  2.051133 -0.333754
       Atomic Center    9 is at   1.418500  0.734540 -0.109732
       Atomic Center   10 is at   0.687608 -0.361400  0.013116
       Atomic Center   11 is at   2.724489  0.706904 -0.096228
       Atomic Center   12 is at   3.437281 -0.416612  0.035455
       Atomic Center   13 is at   2.742444 -1.552852  0.145056
       Atomic Center   14 is at   1.400651 -1.508111  0.127150
       Atomic Center   15 is at  -3.276350 -2.512252 -0.253949
       Atomic Center   16 is at  -4.538781 -0.408315 -0.041879
       Atomic Center   17 is at  -3.261786  1.662471  0.213620
       Atomic Center   18 is at  -0.940519 -2.499382 -0.245822
       Atomic Center   19 is at  -1.283177  2.916922 -0.043236
       Atomic Center   20 is at  -0.564162  2.184345  1.435393
       Atomic Center   21 is at   0.564228  2.184368 -1.435391
       Atomic Center   22 is at   1.283204  2.916908  0.043275
       Atomic Center   23 is at   3.261778  1.662455 -0.213650
       Atomic Center   24 is at   4.538783 -0.408332  0.041789
       Atomic Center   25 is at   3.276337 -2.512264  0.253897
       Atomic Center   26 is at   0.940503 -2.499369  0.245899
 -----------------------------------------------------------------

              Electrostatic Properties (Atomic Units)

 -----------------------------------------------------------------
    Center     Electric         -------- Electric Field --------
               Potential          X             Y             Z
 -----------------------------------------------------------------
    1 Atom    -14.465586     -0.008735     -0.013852     -0.001450
    2 Atom    -14.470581     -0.017293     -0.002138     -0.000224
    3 Atom    -14.415776     -0.020854      0.013408      0.001333
    4 Atom    -17.979968      0.005922      0.015558      0.001303
    5 Atom    -14.394109     -0.004490     -0.011290     -0.001199
    6 Atom    -14.459451      0.005159     -0.015585     -0.001852
    7 Atom    -14.396939      0.004034      0.010676      0.005511
    8 Atom    -14.396939     -0.004034      0.010676     -0.005512
    9 Atom    -17.979968     -0.005922      0.015559     -0.001303
   10 Atom    -14.394110      0.004489     -0.011291      0.001199
   11 Atom    -14.415778      0.020853      0.013408     -0.001333
   12 Atom    -14.470581      0.017294     -0.002139      0.000223
   13 Atom    -14.465586      0.008735     -0.013852      0.001450
   14 Atom    -14.459452     -0.005159     -0.015585      0.001853
   15 Atom     -0.807870     -0.000508     -0.007264     -0.000595
   16 Atom     -0.802900     -0.006563      0.003722      0.000007
   17 Atom     -0.777461      0.001512      0.009101      0.000647
   18 Atom     -0.792418      0.011311     -0.001583     -0.000831
   19 Atom     -0.773581     -0.003600     -0.002464     -0.002881
   20 Atom     -0.786600     -0.003604     -0.001682      0.004583
   21 Atom     -0.786599      0.003602     -0.001682     -0.004580
   22 Atom     -0.773581      0.003599     -0.002463      0.002881
   23 Atom     -0.777463     -0.001510      0.009103     -0.000648
   24 Atom     -0.802899      0.006560      0.003721     -0.000007
   25 Atom     -0.807870      0.000507     -0.007264      0.000596
   26 Atom     -0.792418     -0.011313     -0.001585      0.000831
 -----------------------------------------------------------------
 -----------------------------------------------------
    Center         ---- Electric Field Gradient ----
                     XX            YY            ZZ
 -----------------------------------------------------
    1 Atom     -501.054631   -501.036053   -501.847173
    2 Atom     -500.932479   -500.941536   -501.586438
    3 Atom     -501.152695   -500.722383   -501.440064
    4 Atom     -812.612659   -812.676335   -812.248398
    5 Atom     -500.739804   -500.807354   -501.073365
    6 Atom     -500.839479   -500.947451   -501.451080
    7 Atom     -500.431251   -500.688373   -500.186859
    8 Atom     -500.431272   -500.688411   -500.186882
    9 Atom     -812.612657   -812.676330   -812.248403
   10 Atom     -500.739795   -500.807338   -501.073362
   11 Atom     -501.152714   -500.722399   -501.440082
   12 Atom     -500.932479   -500.941530   -501.586436
   13 Atom     -501.054627   -501.036055   -501.847176
   14 Atom     -500.839485   -500.947456   -501.451083
   15 Atom       -1.718819     -1.928575     -1.619766
   16 Atom       -2.010541     -1.615883     -1.598086
   17 Atom       -1.726450     -1.937125     -1.617078
   18 Atom       -1.738798     -1.971216     -1.633518
   19 Atom       -1.733568     -1.833697     -1.650391
   20 Atom       -1.642347     -1.645437     -1.995742
   21 Atom       -1.642336     -1.645430     -1.995728
   22 Atom       -1.733571     -1.833689     -1.650400
   23 Atom       -1.726461     -1.937145     -1.617088
   24 Atom       -2.010523     -1.615875     -1.598078
   25 Atom       -1.718819     -1.928577     -1.619765
   26 Atom       -1.738806     -1.971224     -1.633526
 -----------------------------------------------------
 -----------------------------------------------------
    Center         ---- Electric Field Gradient ----
                     XY            XZ            YZ
 -----------------------------------------------------
    1 Atom       -0.020198      0.007089      0.085846
    2 Atom       -0.044354      0.004550      0.070864
    3 Atom        0.042191      0.005683      0.083127
    4 Atom       -0.014693     -0.008567     -0.076339
    5 Atom        0.182227      0.019116      0.032774
    6 Atom       -0.041838     -0.000038      0.064096
    7 Atom       -0.293247      0.011911     -0.116925
    8 Atom        0.293243      0.011909      0.116927
    9 Atom        0.014688     -0.008557      0.076345
   10 Atom       -0.182225      0.019114     -0.032778
   11 Atom       -0.042192      0.005679     -0.083125
   12 Atom        0.044347      0.004526     -0.070863
   13 Atom        0.020192      0.007052     -0.085847
   14 Atom        0.041832     -0.000061     -0.064106
   15 Atom       -0.162497     -0.018532     -0.035185
   16 Atom        0.006168     -0.002342     -0.001933
   17 Atom        0.157143      0.018991     -0.038881
   18 Atom        0.160202      0.017075     -0.039807
   19 Atom        0.145352     -0.072477      0.100093
   20 Atom       -0.012977     -0.039155     -0.037090
   21 Atom        0.012976     -0.039140      0.037095
   22 Atom       -0.145349     -0.072482     -0.100098
   23 Atom       -0.157146      0.018994      0.038884
   24 Atom       -0.006166     -0.002325      0.001933
   25 Atom        0.162497     -0.018527      0.035178
   26 Atom       -0.160205      0.017082      0.039819
 -----------------------------------------------------
 -----------------------------------------------------
    Center         ---- Electric Field Gradient ----
                   ----       Eigenvalues       ----
 -----------------------------------------------------
    1 Atom     -501.856263   -501.064522   -501.017071
    2 Atom     -501.594265   -500.976699   -500.889489
    3 Atom     -501.449569   -501.156773   -500.708799
    4 Atom     -812.692721   -812.609576   -812.235094
    5 Atom     -501.077385   -500.957499   -500.585640
    6 Atom     -501.459152   -500.954413   -500.824444
    7 Atom     -500.891983   -500.287334   -500.127165
    8 Atom     -500.892013   -500.287361   -500.127192
    9 Atom     -812.692716   -812.609577   -812.235097
   10 Atom     -501.077382   -500.957483   -500.585629
   11 Atom     -501.449587   -501.156793   -500.708816
   12 Atom     -501.594261   -500.976692   -500.889491
   13 Atom     -501.856266   -501.064519   -501.017074
   14 Atom     -501.459158   -500.954414   -500.824453
   15 Atom       -2.021040     -1.630316     -1.615804
   16 Atom       -2.010651     -1.616003     -1.597856
   17 Atom       -2.025547     -1.642683     -1.612421
   18 Atom       -2.057327     -1.657385     -1.628822
   19 Atom       -1.983243     -1.629927     -1.604485
   20 Atom       -2.004117     -1.648671     -1.630738
   21 Atom       -2.004101     -1.648663     -1.630731
   22 Atom       -1.983244     -1.629929     -1.604488
   23 Atom       -2.025569     -1.642694     -1.612431
   24 Atom       -2.010632     -1.615995     -1.597849
   25 Atom       -2.021040     -1.630316     -1.615805
   26 Atom       -2.057340     -1.657389     -1.628826
 -----------------------------------------------------
 -----------------------------------------------------
    Center         ---- Electric Field Gradient ----
                       ( tensor representation )
                   3XX-RR        3YY-RR        3ZZ-RR
 -----------------------------------------------------
    1 Atom        0.257988      0.276566     -0.534554
    2 Atom        0.221006      0.211948     -0.432954
    3 Atom       -0.047647      0.382664     -0.335017
    4 Atom       -0.100195     -0.163871      0.264066
    5 Atom        0.133704      0.066154     -0.199857
    6 Atom        0.239858      0.131885     -0.371743
    7 Atom        0.004243     -0.252879      0.248636
    8 Atom        0.004250     -0.252889      0.248640
    9 Atom       -0.100194     -0.163867      0.264061
   10 Atom        0.133703      0.066160     -0.199863
   11 Atom       -0.047649      0.382666     -0.335017
   12 Atom        0.221003      0.211951     -0.432954
   13 Atom        0.257992      0.276564     -0.534556
   14 Atom        0.239856      0.131886     -0.371742
   15 Atom        0.036901     -0.172855      0.135954
   16 Atom       -0.269038      0.125620      0.143418
   17 Atom        0.033768     -0.176907      0.143140
   18 Atom        0.042379     -0.190039      0.147659
   19 Atom        0.005651     -0.094479      0.088828
   20 Atom        0.118828      0.115739     -0.234567
   21 Atom        0.118828      0.115735     -0.234563
   22 Atom        0.005649     -0.094469      0.088820
   23 Atom        0.033770     -0.176913      0.143143
   24 Atom       -0.269031      0.125617      0.143414
   25 Atom        0.036902     -0.172857      0.135955
   26 Atom        0.042379     -0.190039      0.147659
 -----------------------------------------------------
 -----------------------------------------------------
    Center         ---- Electric Field Gradient ----
                       ( tensor representation )
                   ----       Eigenvalues       ----
 -----------------------------------------------------
    1 Atom       -0.543645      0.248097      0.295548
    2 Atom       -0.440781      0.176785      0.263996
    3 Atom       -0.344522     -0.051726      0.396248
    4 Atom       -0.180257     -0.097112      0.277370
    5 Atom       -0.203877     -0.083991      0.287868
    6 Atom       -0.379816      0.124923      0.254892
    7 Atom       -0.456489      0.148160      0.308329
    8 Atom       -0.456491      0.148161      0.308330
    9 Atom       -0.180253     -0.097114      0.277366
   10 Atom       -0.203884     -0.083985      0.287869
   11 Atom       -0.344522     -0.051728      0.396249
   12 Atom       -0.440780      0.176789      0.263991
   13 Atom       -0.543646      0.248101      0.295546
   14 Atom       -0.379816      0.124928      0.254889
   15 Atom       -0.265320      0.125404      0.139916
   16 Atom       -0.269147      0.125500      0.143647
   17 Atom       -0.265330      0.117534      0.147796
   18 Atom       -0.276149      0.123793      0.152356
   19 Atom       -0.244025      0.109292      0.134733
   20 Atom       -0.242941      0.112504      0.130437
   21 Atom       -0.242936      0.112501      0.130434
   22 Atom       -0.244023      0.109291      0.134732
   23 Atom       -0.265338      0.117538      0.147800
   24 Atom       -0.269140      0.125497      0.143643
   25 Atom       -0.265320      0.125404      0.139915
   26 Atom       -0.276155      0.123796      0.152359
 -----------------------------------------------------
 Calling FoFJK, ICntrl=      2127 FMM=F ISym2X=0 I1Cent= 0 IOpClX= 0 NMat=1 NMatS=1 NMatT=0.
 ***** Axes restored to original set *****
 -------------------------------------------------------------------
 Center     Atomic                   Forces (Hartrees/Bohr)
 Number     Number              X              Y              Z
 -------------------------------------------------------------------
      1        6           0.028537939   -0.057192701    0.004624208
      2        6           0.059459003   -0.002366864    0.003669855
      3        6           0.044772635    0.062792813   -0.001389278
      4        7          -0.029816229    0.063162034   -0.000452960
      5        6           0.044468913   -0.016044022    0.001625563
      6        6          -0.034958944   -0.064628304    0.003855753
      7        6          -0.001206196    0.006791176   -0.017117045
      8        6           0.001941725    0.004455123    0.017803103
      9        7           0.037797688    0.058213209    0.007847810
     10        6          -0.046161844   -0.009797026   -0.003201742
     11        6          -0.036206012    0.067467384    0.009322504
     12        6          -0.059231977    0.005866868   -0.003453755
     13        6          -0.035720325   -0.051999320   -0.011275135
     14        6           0.026252231   -0.067693034   -0.011915239
     15        1          -0.007858176    0.009485840   -0.001232643
     16        1          -0.011904192    0.004560844   -0.000660680
     17        1          -0.011463469   -0.006084939    0.000239560
     18        1          -0.002848390    0.015460853   -0.000488477
     19        1          -0.006402651   -0.015675472   -0.004196951
     20        1           0.004307948   -0.005272197    0.012808144
     21        1          -0.004853264   -0.003079106   -0.013319422
     22        1           0.004271217   -0.016767244    0.002221634
     23        1           0.010570503   -0.007452429   -0.001063900
     24        1           0.012394641    0.002854022    0.001111750
     25        1           0.009019195    0.008160392    0.002306563
     26        1           0.004838029    0.014782100    0.002330780
 -------------------------------------------------------------------
 Cartesian Forces:  Max     0.067693034 RMS     0.026664230

 GradGradGradGradGradGradGradGradGradGradGradGradGradGradGradGradGradGrad
 Berny optimization.
 FormGI is forming the generalized inverse of G from B-inverse, IUseBI=4.
 Internal  Forces:  Max     0.081452829 RMS     0.017807655
 Search for a local minimum.
 Step number   1 out of a maximum of  156
 All quantities printed in internal units (Hartrees-Bohrs-Radians)
 Mixed Optimization -- RFO/linear search
 Second derivative matrix not updated -- first step.
 ITU=  0
     Eigenvalues ---    0.00539   0.01201   0.01749   0.01845   0.02468
     Eigenvalues ---    0.02611   0.02685   0.02753   0.02753   0.02828
     Eigenvalues ---    0.02830   0.02886   0.02886   0.02918   0.02919
     Eigenvalues ---    0.02925   0.02925   0.02928   0.02928   0.03693
     Eigenvalues ---    0.04104   0.05525   0.05996   0.08742   0.09049
     Eigenvalues ---    0.09134   0.11680   0.15993   0.15993   0.15998
     Eigenvalues ---    0.15998   0.15999   0.15999   0.16000   0.16000
     Eigenvalues ---    0.20690   0.21999   0.22000   0.22588   0.22628
     Eigenvalues ---    0.22986   0.24465   0.24546   0.24966   0.28248
     Eigenvalues ---    0.29326   0.29708   0.31900   0.31901   0.32026
     Eigenvalues ---    0.32026   0.33315   0.33315   0.33405   0.33405
     Eigenvalues ---    0.33511   0.33512   0.33761   0.33761   0.47365
     Eigenvalues ---    0.49611   0.49654   0.50167   0.51598   0.55629
     Eigenvalues ---    0.55740   0.57367   0.57504   0.57932   0.59044
     Eigenvalues ---    0.63825   0.63860
 RFO step:  Lambda=-8.26226569D-02 EMin= 5.38561846D-03
 Linear search not attempted -- first point.
 Maximum step size (   0.300) exceeded in Quadratic search.
    -- Step size scaled by   0.769
 Iteration  1 RMS(Cart)=  0.06267683 RMS(Int)=  0.00080741
 Iteration  2 RMS(Cart)=  0.00122883 RMS(Int)=  0.00011411
 Iteration  3 RMS(Cart)=  0.00000064 RMS(Int)=  0.00011411
 Variable       Old X    -DE/DX   Delta X   Delta X   Delta X     New X
                                 (Linear)    (Quad)   (Total)
    R1        2.52535   0.06456   0.00000   0.07495   0.07495   2.60029
    R2        2.53726   0.05448   0.00000   0.06479   0.06484   2.60209
    R3        2.08501  -0.01197   0.00000  -0.02212  -0.02212   2.06289
    R4        2.52667   0.05231   0.00000   0.06064   0.06059   2.58726
    R5        2.08162  -0.01218   0.00000  -0.02242  -0.02242   2.05921
    R6        2.46865   0.04559   0.00000   0.04732   0.04728   2.51593
    R7        2.08347  -0.01138   0.00000  -0.02100  -0.02100   2.06247
    R8        2.50015   0.05313   0.00000   0.06216   0.06231   2.56246
    R9        2.87535  -0.01429   0.00000  -0.03384  -0.03400   2.84135
   R10        2.56083   0.04601   0.00000   0.05701   0.05706   2.61790
   R11        2.59925   0.08145   0.00000   0.11496   0.11526   2.71451
   R12        2.07736  -0.01217   0.00000  -0.02226  -0.02226   2.05509
   R13        2.89484  -0.00285   0.00000  -0.01634  -0.01658   2.87825
   R14        2.10796  -0.01657   0.00000  -0.03161  -0.03161   2.07635
   R15        2.11026  -0.01371   0.00000  -0.02624  -0.02624   2.08401
   R16        2.87535  -0.01429   0.00000  -0.03384  -0.03400   2.84136
   R17        2.11026  -0.01371   0.00000  -0.02625  -0.02625   2.08402
   R18        2.10796  -0.01657   0.00000  -0.03161  -0.03161   2.07635
   R19        2.50014   0.05313   0.00000   0.06216   0.06231   2.56246
   R20        2.46865   0.04559   0.00000   0.04733   0.04728   2.51593
   R21        2.56083   0.04602   0.00000   0.05702   0.05707   2.61790
   R22        2.52666   0.05232   0.00000   0.06065   0.06060   2.58726
   R23        2.08346  -0.01138   0.00000  -0.02099  -0.02099   2.06246
   R24        2.52535   0.06455   0.00000   0.07495   0.07494   2.60029
   R25        2.08163  -0.01218   0.00000  -0.02242  -0.02242   2.05921
   R26        2.53726   0.05448   0.00000   0.06479   0.06484   2.60209
   R27        2.08501  -0.01197   0.00000  -0.02212  -0.02212   2.06289
   R28        2.07735  -0.01217   0.00000  -0.02226  -0.02226   2.05509
    A1        2.08310   0.00032   0.00000   0.00302   0.00308   2.08618
    A2        2.08960   0.00314   0.00000   0.00894   0.00891   2.09851
    A3        2.11048  -0.00346   0.00000  -0.01196  -0.01199   2.09849
    A4        2.03237   0.00627   0.00000   0.01732   0.01729   2.04966
    A5        2.12449   0.00083   0.00000   0.00389   0.00391   2.12840
    A6        2.12626  -0.00709   0.00000  -0.02117  -0.02116   2.10510
    A7        2.15526  -0.00926   0.00000  -0.02279  -0.02285   2.13241
    A8        2.07027   0.01112   0.00000   0.03194   0.03197   2.10224
    A9        2.05756  -0.00185   0.00000  -0.00912  -0.00909   2.04847
   A10        2.13389   0.00190   0.00000   0.00699   0.00700   2.14089
   A11        2.09309  -0.01179   0.00000  -0.02593  -0.02591   2.06718
   A12        2.05525   0.00992   0.00000   0.01882   0.01878   2.07403
   A13        2.00213   0.01258   0.00000   0.02325   0.02312   2.02526
   A14        2.15384  -0.02233   0.00000  -0.03793  -0.03758   2.11626
   A15        2.12669   0.00980   0.00000   0.01488   0.01464   2.14132
   A16        2.15936  -0.01177   0.00000  -0.02761  -0.02749   2.13186
   A17        1.96799   0.01623   0.00000   0.04657   0.04651   2.01450
   A18        2.15541  -0.00445   0.00000  -0.01893  -0.01898   2.13642
   A19        1.94673   0.01157   0.00000   0.00805   0.00749   1.95423
   A20        1.94632  -0.01031   0.00000  -0.02788  -0.02772   1.91861
   A21        1.87780  -0.00258   0.00000  -0.00381  -0.00398   1.87381
   A22        1.90906  -0.00242   0.00000  -0.00350  -0.00345   1.90560
   A23        1.90597   0.00144   0.00000   0.02311   0.02318   1.92915
   A24        1.87602   0.00218   0.00000   0.00511   0.00491   1.88093
   A25        1.94672   0.01158   0.00000   0.00806   0.00750   1.95422
   A26        1.90602   0.00144   0.00000   0.02310   0.02316   1.92918
   A27        1.90906  -0.00242   0.00000  -0.00350  -0.00346   1.90560
   A28        1.87779  -0.00258   0.00000  -0.00380  -0.00398   1.87381
   A29        1.94631  -0.01031   0.00000  -0.02787  -0.02771   1.91859
   A30        1.87602   0.00218   0.00000   0.00511   0.00491   1.88093
   A31        2.05525   0.00992   0.00000   0.01881   0.01878   2.07403
   A32        2.09309  -0.01179   0.00000  -0.02593  -0.02590   2.06718
   A33        2.13389   0.00190   0.00000   0.00699   0.00699   2.14088
   A34        2.15385  -0.02234   0.00000  -0.03794  -0.03759   2.11626
   A35        2.12667   0.00980   0.00000   0.01489   0.01465   2.14131
   A36        2.00214   0.01258   0.00000   0.02325   0.02312   2.02526
   A37        2.15526  -0.00926   0.00000  -0.02279  -0.02285   2.13241
   A38        2.05755  -0.00185   0.00000  -0.00912  -0.00909   2.04846
   A39        2.07028   0.01112   0.00000   0.03193   0.03196   2.10225
   A40        2.03236   0.00628   0.00000   0.01732   0.01729   2.04966
   A41        2.12626  -0.00709   0.00000  -0.02117  -0.02116   2.10510
   A42        2.12450   0.00082   0.00000   0.00389   0.00390   2.12840
   A43        2.08310   0.00032   0.00000   0.00301   0.00308   2.08618
   A44        2.08959   0.00314   0.00000   0.00894   0.00891   2.09850
   A45        2.11048  -0.00346   0.00000  -0.01196  -0.01199   2.09849
   A46        2.15935  -0.01177   0.00000  -0.02761  -0.02749   2.13186
   A47        2.15541  -0.00445   0.00000  -0.01893  -0.01899   2.13642
   A48        1.96799   0.01623   0.00000   0.04657   0.04651   2.01450
    D1       -0.00780   0.00064   0.00000   0.00276   0.00273  -0.00507
    D2       -3.13760  -0.00031   0.00000  -0.00136  -0.00142  -3.13902
    D3        3.13915   0.00067   0.00000   0.00278   0.00278  -3.14125
    D4        0.00935  -0.00028   0.00000  -0.00134  -0.00136   0.00799
    D5       -0.00942   0.00054   0.00000   0.00234   0.00235  -0.00707
    D6       -3.12034   0.00022   0.00000   0.00143   0.00148  -3.11886
    D7        3.12675   0.00053   0.00000   0.00239   0.00236   3.12911
    D8        0.01583   0.00021   0.00000   0.00148   0.00149   0.01732
    D9        0.01021  -0.00068   0.00000  -0.00231  -0.00231   0.00790
   D10       -3.11645  -0.00128   0.00000  -0.00465  -0.00464  -3.12108
   D11        3.14000   0.00033   0.00000   0.00200   0.00196  -3.14123
   D12        0.01334  -0.00028   0.00000  -0.00034  -0.00037   0.01297
   D13        0.00511  -0.00054   0.00000  -0.00347  -0.00341   0.00171
   D14       -3.08842  -0.00156   0.00000  -0.00077  -0.00070  -3.08913
   D15        3.13188   0.00016   0.00000  -0.00081  -0.00082   3.13106
   D16        0.03834  -0.00086   0.00000   0.00189   0.00189   0.04023
   D17       -0.02110   0.00139   0.00000   0.00761   0.00771  -0.01339
   D18       -3.12831  -0.00029   0.00000   0.00084   0.00102  -3.12730
   D19        3.07343   0.00182   0.00000   0.00380   0.00382   3.07726
   D20       -0.03379   0.00014   0.00000  -0.00298  -0.00287  -0.03665
   D21       -2.65384   0.00354   0.00000   0.02194   0.02191  -2.63193
   D22       -0.51369   0.00131   0.00000   0.00312   0.00307  -0.51061
   D23        1.53944  -0.00343   0.00000  -0.00874  -0.00860   1.53084
   D24        0.53367   0.00275   0.00000   0.02478   0.02477   0.55844
   D25        2.67383   0.00053   0.00000   0.00595   0.00593   2.67976
   D26       -1.55623  -0.00422   0.00000  -0.00590  -0.00575  -1.56198
   D27        0.02352  -0.00156   0.00000  -0.00750  -0.00750   0.01602
   D28        3.13119  -0.00087   0.00000  -0.00541  -0.00546   3.12573
   D29        3.13133  -0.00062   0.00000  -0.00200  -0.00184   3.12949
   D30       -0.04418   0.00008   0.00000   0.00009   0.00020  -0.04398
   D31       -0.24825   0.00243   0.00000  -0.00350  -0.00358  -0.25183
   D32        2.93012   0.00065   0.00000  -0.01080  -0.01079   2.91933
   D33        2.93010   0.00065   0.00000  -0.01080  -0.01079   2.91932
   D34       -0.17471  -0.00113   0.00000  -0.01810  -0.01799  -0.19271
   D35       -0.75144  -0.01038   0.00000  -0.04081  -0.04079  -0.79223
   D36        1.32176  -0.00553   0.00000  -0.02574  -0.02572   1.29604
   D37       -2.91277  -0.00346   0.00000  -0.00828  -0.00821  -2.92098
   D38       -2.91280  -0.00346   0.00000  -0.00827  -0.00821  -2.92101
   D39       -0.83961   0.00138   0.00000   0.00679   0.00686  -0.83275
   D40        1.20905   0.00345   0.00000   0.02425   0.02437   1.23342
   D41        1.32174  -0.00553   0.00000  -0.02574  -0.02572   1.29602
   D42       -2.88825  -0.00068   0.00000  -0.01068  -0.01065  -2.89890
   D43       -0.83959   0.00138   0.00000   0.00678   0.00686  -0.83273
   D44        0.53365   0.00275   0.00000   0.02477   0.02476   0.55842
   D45       -2.65388   0.00354   0.00000   0.02194   0.02191  -2.63197
   D46       -1.55629  -0.00422   0.00000  -0.00590  -0.00574  -1.56203
   D47        1.53936  -0.00343   0.00000  -0.00873  -0.00859   1.53077
   D48        2.67379   0.00053   0.00000   0.00595   0.00593   2.67972
   D49       -0.51375   0.00131   0.00000   0.00312   0.00308  -0.51067
   D50       -0.03377   0.00014   0.00000  -0.00298  -0.00286  -0.03664
   D51        3.07344   0.00182   0.00000   0.00380   0.00382   3.07726
   D52       -3.12828  -0.00029   0.00000   0.00084   0.00102  -3.12726
   D53       -0.02107   0.00139   0.00000   0.00761   0.00771  -0.01337
   D54       -3.08840  -0.00156   0.00000  -0.00077  -0.00071  -3.08911
   D55        0.03837  -0.00086   0.00000   0.00189   0.00188   0.04025
   D56        0.00511  -0.00054   0.00000  -0.00347  -0.00341   0.00171
   D57        3.13188   0.00016   0.00000  -0.00081  -0.00082   3.13107
   D58        3.13127  -0.00062   0.00000  -0.00200  -0.00183   3.12943
   D59       -0.04421   0.00008   0.00000   0.00009   0.00020  -0.04401
   D60        0.02347  -0.00156   0.00000  -0.00750  -0.00749   0.01598
   D61        3.13117  -0.00087   0.00000  -0.00541  -0.00546   3.12571
   D62        0.01021  -0.00068   0.00000  -0.00231  -0.00231   0.00790
   D63        3.13999   0.00033   0.00000   0.00201   0.00196  -3.14124
   D64       -3.11646  -0.00128   0.00000  -0.00465  -0.00464  -3.12109
   D65        0.01332  -0.00028   0.00000  -0.00034  -0.00037   0.01295
   D66       -0.00782   0.00064   0.00000   0.00277   0.00273  -0.00509
   D67        3.13914   0.00067   0.00000   0.00278   0.00279  -3.14126
   D68       -3.13761  -0.00031   0.00000  -0.00136  -0.00142  -3.13903
   D69        0.00935  -0.00028   0.00000  -0.00135  -0.00136   0.00799
   D70       -0.00937   0.00054   0.00000   0.00233   0.00234  -0.00702
   D71       -3.12031   0.00022   0.00000   0.00142   0.00147  -3.11884
   D72        3.12679   0.00053   0.00000   0.00238   0.00236   3.12914
   D73        0.01584   0.00021   0.00000   0.00148   0.00149   0.01733
         Item               Value     Threshold  Converged?
 Maximum Force            0.081453     0.000450     NO 
 RMS     Force            0.017808     0.000300     NO 
 Maximum Displacement     0.225797     0.001800     NO 
 RMS     Displacement     0.062467     0.001200     NO 
 Predicted change in Energy=-4.310610D-02
 GradGradGradGradGradGradGradGradGradGradGradGradGradGradGradGradGradGrad

                          Input orientation:                          
 ---------------------------------------------------------------------
 Center     Atomic      Atomic             Coordinates (Angstroms)
 Number     Number       Type             X           Y           Z
 ---------------------------------------------------------------------
      1          6           0        2.741891   -1.889363    0.108294
      2          6           0        3.495072   -0.737821    0.098893
      3          6           0        2.827489    0.451677   -0.019066
      4          7           0        1.500896    0.513930   -0.113016
      5          6           0        0.713497   -0.589918   -0.097204
      6          6           0        1.371274   -1.804674    0.006925
      7          6           0        0.859217    1.859604   -0.308367
      8          6           0       -0.540883    1.915305    0.288679
      9          7           0       -1.351050    0.698386   -0.062743
[...]
     1  C    0.006573  -0.035658   0.005292  -0.002480   0.001257   0.000520
     2  C    0.008215   0.031106   0.005385  -0.001094  -0.001944  -0.000104
     3  C   -0.006497  -0.058944  -0.025112   0.001070   0.003833  -0.000066
     4  N   -0.062753  -0.013018   0.006918   0.020486  -0.001820   0.001605
     5  C    0.051148  -0.025552  -0.035894   0.008623   0.002921  -0.018179
     6  C   -0.045045   0.047300  -0.006055  -0.007364  -0.000505  -0.005313
     7  C    0.412050   0.444174  -0.043330  -0.032055  -0.001713   0.000481
     8  C   -0.032055  -0.043330   0.444174   0.412050  -0.012763   0.003282
     9  N    0.020486   0.006918  -0.013018  -0.062753  -0.055780   0.017436
    10  C    0.008623  -0.035894  -0.025552   0.051148  -0.012553  -0.021288
    11  C    0.001070  -0.025112  -0.058944  -0.006497   0.393363  -0.047375
    12  C   -0.001094   0.005385   0.031106   0.008215  -0.021689   0.405544
    13  C   -0.002480   0.005292  -0.035658   0.006573   0.027090  -0.057108
    14  C   -0.007364  -0.006055   0.047300  -0.045045   0.011759   0.047842
    15  H   -0.000334  -0.000585  -0.000277   0.000093   0.000016   0.000022
    16  H    0.001295   0.001074   0.000499  -0.000017  -0.000006   0.000000
    17  H   -0.002250  -0.002193  -0.003487   0.000947   0.000281  -0.000006
    18  H   -0.001457   0.001766  -0.000165   0.000652  -0.000087  -0.000691
    19  H    0.419583  -0.006453   0.006196  -0.010751   0.000947  -0.000017
    20  H   -0.006453   0.396011   0.003500   0.006196  -0.003487   0.000499
    21  H    0.006196   0.003500   0.396011  -0.006453  -0.002193   0.001074
    22  H   -0.010751   0.006196  -0.006453   0.419583  -0.002250   0.001295
    23  H    0.000947  -0.003487  -0.002193  -0.002250   0.411558  -0.006499
    24  H   -0.000017   0.000499   0.001074   0.001295  -0.006499   0.390524
    25  H    0.000093  -0.000277  -0.000585  -0.000334   0.001799  -0.005242
    26  H    0.000652  -0.000165   0.001766  -0.001457  -0.000109   0.002879
              25         26
     1  C   -0.003057   0.065243
     2  C    0.000142  -0.018483
     3  C    0.000484   0.002135
     4  N   -0.001535  -0.000201
     5  C    0.018020  -0.079621
     6  C    0.015551  -0.200070
     7  C    0.001011   0.005333
     8  C    0.001178  -0.011269
     9  N    0.002937   0.026887
    10  C    0.091959  -0.263206
    11  C    0.009016  -0.027576
    12  C   -0.059236   0.074203
    13  C    0.410095  -0.246589
    14  C   -0.152821   0.984310
    15  H   -0.000099   0.002946
    16  H    0.000022  -0.000691
    17  H    0.000016  -0.000087
    18  H    0.002946  -0.033268
    19  H    0.000093   0.000652
    20  H   -0.000277  -0.000165
    21  H   -0.000585   0.001766
    22  H   -0.000334  -0.001457
    23  H    0.001799  -0.000109
    24  H   -0.005242   0.002879
    25  H    0.396629  -0.013801
    26  H   -0.013801   0.503515
 Mulliken charges:
               1
     1  C   -0.375941
     2  C   -0.436249
     3  C    0.297723
     4  N    0.342448
     5  C   -0.038894
     6  C   -0.105824
     7  C   -0.301653
     8  C   -0.301653
     9  N    0.342448
    10  C   -0.038893
    11  C    0.297723
    12  C   -0.436250
    13  C   -0.375941
    14  C   -0.105825
    15  H    0.285091
    16  H    0.288885
    17  H    0.268572
    18  H    0.226724
    19  H    0.241616
    20  H    0.307502
    21  H    0.307502
    22  H    0.241616
    23  H    0.268572
    24  H    0.288885
    25  H    0.285091
    26  H    0.226724
 Sum of Mulliken charges =   2.00000
 Mulliken charges with hydrogens summed into heavy atoms:
               1
     1  C   -0.090850
     2  C   -0.147364
     3  C    0.566295
     4  N    0.342448
     5  C   -0.038894
     6  C    0.120900
     7  C    0.247466
     8  C    0.247466
     9  N    0.342448
    10  C   -0.038893
    11  C    0.566295
    12  C   -0.147364
    13  C   -0.090850
    14  C    0.120899
 Electronic spatial extent (au):  <R**2>=           2538.0886
 Charge=              2.0000 electrons
 Dipole moment (field-independent basis, Debye):
    X=              0.0000    Y=              1.3157    Z=              0.0000  Tot=              1.3157
 Quadrupole moment (field-independent basis, Debye-Ang):
   XX=             -2.7518   YY=            -39.4452   ZZ=            -76.9990
   XY=              0.0000   XZ=             -0.1284   YZ=              0.0000
 Traceless Quadrupole moment (field-independent basis, Debye-Ang):
   XX=             36.9802   YY=              0.2868   ZZ=            -37.2670
   XY=              0.0000   XZ=             -0.1284   YZ=              0.0000
 Octapole moment (field-independent basis, Debye-Ang**2):
  XXX=              0.0000  YYY=              7.8654  ZZZ=              0.0000  XYY=              0.0000
  XXY=            -19.8431  XXZ=              0.0000  XZZ=              0.0000  YZZ=              8.0711
  YYZ=              0.0000  XYZ=            -15.4661
 Hexadecapole moment (field-independent basis, Debye-Ang**3):
 XXXX=          -1257.3557 YYYY=           -648.0465 ZZZZ=           -122.3134 XXXY=              0.0000
 XXXZ=              4.6220 YYYX=              0.0000 YYYZ=              0.0000 ZZZX=             -3.4486
 ZZZY=              0.0000 XXYY=           -346.7427 XXZZ=           -438.2504 YYZZ=           -159.1491
 XXYZ=              0.0000 YYXZ=             10.2382 ZZXY=              0.0000
 N-N= 8.542934041026D+02 E-N=-3.008345523134D+03  KE= 5.710358092430D+02

 **********************************************************************

            Electrostatic Properties Using The SCF Density

 **********************************************************************

       Atomic Center    1 is at  -2.875077 -1.535718 -0.260578
       Atomic Center    2 is at  -3.520965 -0.329064 -0.008219
       Atomic Center    3 is at  -2.756330  0.802850  0.211846
       Atomic Center    4 is at  -1.405765  0.743795  0.198515
       Atomic Center    5 is at  -0.740462 -0.432052 -0.019471
       Atomic Center    6 is at  -1.480670 -1.581580 -0.269922
       Atomic Center    7 is at  -0.606923  1.973364  0.453848
       Atomic Center    8 is at   0.606923  1.973364 -0.453849
       Atomic Center    9 is at   1.405765  0.743795 -0.198516
       Atomic Center   10 is at   0.740462 -0.432052  0.019471
       Atomic Center   11 is at   2.756330  0.802849 -0.211845
       Atomic Center   12 is at   3.520965 -0.329064  0.008219
       Atomic Center   13 is at   2.875077 -1.535718  0.260578
       Atomic Center   14 is at   1.480670 -1.581580  0.269922
       Atomic Center   15 is at  -3.446444 -2.435692 -0.456984
       Atomic Center   16 is at  -4.600871 -0.251196  0.006653
       Atomic Center   17 is at  -3.193650  1.775292  0.399597
       Atomic Center   18 is at  -0.975340 -2.511187 -0.492738
       Atomic Center   19 is at  -1.230815  2.840736  0.243889
       Atomic Center   20 is at  -0.325871  1.988686  1.510280
       Atomic Center   21 is at   0.325871  1.988686 -1.510280
       Atomic Center   22 is at   1.230815  2.840736 -0.243890
       Atomic Center   23 is at   3.193650  1.775292 -0.399596
       Atomic Center   24 is at   4.600871 -0.251196 -0.006652
       Atomic Center   25 is at   3.446444 -2.435692  0.456984
       Atomic Center   26 is at   0.975340 -2.511187  0.492738
 -----------------------------------------------------------------

              Electrostatic Properties (Atomic Units)

 -----------------------------------------------------------------
    Center     Electric         -------- Electric Field --------
               Potential          X             Y             Z
 -----------------------------------------------------------------
    1 Atom    -14.448943     -0.003249     -0.003583     -0.000706
    2 Atom    -14.457156     -0.005983     -0.002275     -0.000240
    3 Atom    -14.405533     -0.013396      0.002633      0.000432
    4 Atom    -17.981341      0.001016      0.005489      0.001098
    5 Atom    -14.378601      0.002989     -0.009891     -0.001834
    6 Atom    -14.445870     -0.001176     -0.004809     -0.001192
    7 Atom    -14.408044      0.004999      0.009357      0.003080
    8 Atom    -14.408044     -0.004999      0.009357     -0.003080
    9 Atom    -17.981341     -0.001016      0.005489     -0.001098
   10 Atom    -14.378601     -0.002989     -0.009891      0.001834
   11 Atom    -14.405533      0.013396      0.002633     -0.000432
   12 Atom    -14.457156      0.005983     -0.002275      0.000240
   13 Atom    -14.448943      0.003249     -0.003583      0.000706
   14 Atom    -14.445870      0.001176     -0.004809      0.001192
   15 Atom     -0.806269     -0.010573     -0.016580     -0.003642
   16 Atom     -0.805263     -0.020002      0.001367      0.000291
   17 Atom     -0.773914     -0.008391      0.017813      0.003460
   18 Atom     -0.789437      0.009054     -0.017168     -0.004206
   19 Atom     -0.781830     -0.010776      0.015458     -0.003527
   20 Atom     -0.788363      0.004746      0.000687      0.018502
   21 Atom     -0.788363     -0.004746      0.000687     -0.018502
   22 Atom     -0.781830      0.010776      0.015458      0.003527
   23 Atom     -0.773914      0.008391      0.017813     -0.003460
   24 Atom     -0.805263      0.020002      0.001367     -0.000291
   25 Atom     -0.806269      0.010573     -0.016580      0.003642
   26 Atom     -0.789437     -0.009054     -0.017168      0.004206
 -----------------------------------------------------------------
 -----------------------------------------------------
    Center         ---- Electric Field Gradient ----
                     XX            YY            ZZ
 -----------------------------------------------------
    1 Atom     -500.979816   -500.947616   -501.703060
    2 Atom     -500.776950   -500.901766   -501.418009
    3 Atom     -501.179763   -500.726867   -501.412679
    4 Atom     -812.698333   -812.731310   -812.284860
    5 Atom     -500.676580   -500.714371   -500.922665
    6 Atom     -500.780612   -500.844388   -501.312748
    7 Atom     -500.441902   -500.655611   -500.247996
    8 Atom     -500.441902   -500.655611   -500.247996
    9 Atom     -812.698333   -812.731310   -812.284860
   10 Atom     -500.676580   -500.714371   -500.922665
   11 Atom     -501.179763   -500.726867   -501.412679
   12 Atom     -500.776950   -500.901766   -501.418009
   13 Atom     -500.979816   -500.947616   -501.703060
   14 Atom     -500.780612   -500.844388   -501.312748
   15 Atom       -1.769542     -1.952778     -1.649908
   16 Atom       -2.082967     -1.643432     -1.622925
   17 Atom       -1.729419     -2.015504     -1.644860
   18 Atom       -1.769002     -1.992368     -1.659748
   19 Atom       -1.822161     -1.940505     -1.671159
   20 Atom       -1.696710     -1.670637     -2.061053
   21 Atom       -1.696710     -1.670637     -2.061053
   22 Atom       -1.822161     -1.940505     -1.671159
   23 Atom       -1.729419     -2.015504     -1.644860
   24 Atom       -2.082967     -1.643432     -1.622925
   25 Atom       -1.769542     -1.952778     -1.649908
   26 Atom       -1.769002     -1.992368     -1.659748
 -----------------------------------------------------
 -----------------------------------------------------
    Center         ---- Electric Field Gradient ----
                     XY            XZ            YZ
 -----------------------------------------------------
    1 Atom        0.032597      0.009346      0.171778
    2 Atom       -0.037261     -0.006320      0.109306
    3 Atom        0.044308      0.010159      0.132334
    4 Atom        0.024249      0.006129     -0.103262
    5 Atom        0.183477      0.038812      0.048015
    6 Atom       -0.063585     -0.013235      0.115709
    7 Atom       -0.314297      0.021309     -0.109061
    8 Atom        0.314297      0.021309      0.109061
    9 Atom       -0.024249      0.006129      0.103262
   10 Atom       -0.183477      0.038812     -0.048016
   11 Atom       -0.044308      0.010159     -0.132334
   12 Atom        0.037261     -0.006320     -0.109306
   13 Atom       -0.032597      0.009346     -0.171778
   14 Atom        0.063585     -0.013235     -0.115709
   15 Atom       -0.193101     -0.042125     -0.069386
   16 Atom        0.032480      0.006164     -0.004245
   17 Atom        0.153482      0.030098     -0.072907
   18 Atom        0.184640      0.041451     -0.082814
   19 Atom        0.190543     -0.051145      0.068813
   20 Atom       -0.008695     -0.107189     -0.000574
   21 Atom        0.008695     -0.107189      0.000574
   22 Atom       -0.190543     -0.051145     -0.068813
   23 Atom       -0.153482      0.030098      0.072907
   24 Atom       -0.032481      0.006164      0.004245
   25 Atom        0.193101     -0.042125      0.069386
   26 Atom       -0.184640      0.041451      0.082814
 -----------------------------------------------------
 -----------------------------------------------------
    Center         ---- Electric Field Gradient ----
                   ----       Eigenvalues       ----
 -----------------------------------------------------
    1 Atom     -501.740292   -500.993573   -500.896626
    2 Atom     -501.440201   -500.891980   -500.764544
    3 Atom     -501.437341   -501.184030   -500.697936
    4 Atom     -812.763612   -812.688760   -812.262132
    5 Atom     -500.933220   -500.878217   -500.502179
    6 Atom     -501.339779   -500.866463   -500.731506
    7 Atom     -500.889919   -500.308820   -500.146771
    8 Atom     -500.889919   -500.308820   -500.146771
    9 Atom     -812.763612   -812.688760   -812.262132
   10 Atom     -500.933220   -500.878217   -500.502179
   11 Atom     -501.437342   -501.184030   -500.697936
   12 Atom     -501.440201   -500.891980   -500.764544
   13 Atom     -501.740292   -500.993573   -500.896626
   14 Atom     -501.339779   -500.866463   -500.731506
   15 Atom       -2.089865     -1.647594     -1.634769
   16 Atom       -2.085444     -1.641799     -1.622081
   17 Atom       -2.096049     -1.662724     -1.631009
   18 Atom       -2.115258     -1.665703     -1.640157
   19 Atom       -2.098071     -1.681818     -1.653935
   20 Atom       -2.090268     -1.677449     -1.660683
   21 Atom       -2.090268     -1.677449     -1.660683
   22 Atom       -2.098071     -1.681818     -1.653935
   23 Atom       -2.096049     -1.662724     -1.631009
   24 Atom       -2.085444     -1.641799     -1.622081
   25 Atom       -2.089865     -1.647594     -1.634769
   26 Atom       -2.115258     -1.665703     -1.640157
 -----------------------------------------------------
 -----------------------------------------------------
    Center         ---- Electric Field Gradient ----
                       ( tensor representation )
                   3XX-RR        3YY-RR        3ZZ-RR
 -----------------------------------------------------
    1 Atom        0.230348      0.262548     -0.492896
    2 Atom        0.255292      0.130476     -0.385767
    3 Atom       -0.073327      0.379569     -0.306243
    4 Atom       -0.126832     -0.159809      0.286641
    5 Atom        0.094626      0.056834     -0.151460
    6 Atom        0.198637      0.134861     -0.333498
    7 Atom        0.006601     -0.207108      0.200507
    8 Atom        0.006601     -0.207108      0.200507
    9 Atom       -0.126832     -0.159809      0.286641
   10 Atom        0.094625      0.056834     -0.151460
   11 Atom       -0.073327      0.379569     -0.306243
   12 Atom        0.255292      0.130476     -0.385767
   13 Atom        0.230348      0.262548     -0.492896
   14 Atom        0.198637      0.134861     -0.333499
   15 Atom        0.021201     -0.162036      0.140834
   16 Atom       -0.299859      0.139676      0.160183
   17 Atom        0.067175     -0.218910      0.151734
   18 Atom        0.038037     -0.185328      0.147291
   19 Atom       -0.010886     -0.129230      0.140116
   20 Atom        0.112757      0.138829     -0.251587
   21 Atom        0.112757      0.138829     -0.251587
   22 Atom       -0.010886     -0.129230      0.140116
   23 Atom        0.067175     -0.218910      0.151734
   24 Atom       -0.299859      0.139676      0.160183
   25 Atom        0.021201     -0.162036      0.140834
   26 Atom        0.038037     -0.185328      0.147291
 -----------------------------------------------------
 -----------------------------------------------------
    Center         ---- Electric Field Gradient ----
                       ( tensor representation )
                   ----       Eigenvalues       ----
 -----------------------------------------------------
    1 Atom       -0.530128      0.216591      0.313538
    2 Atom       -0.407959      0.140262      0.267698
    3 Atom       -0.330905     -0.077594      0.408500
    4 Atom       -0.192110     -0.117259      0.309369
    5 Atom       -0.162015     -0.107011      0.269026
    6 Atom       -0.360530      0.112786      0.247743
    7 Atom       -0.441416      0.139684      0.301732
    8 Atom       -0.441416      0.139683      0.301732
    9 Atom       -0.192110     -0.117259      0.309369
   10 Atom       -0.162015     -0.107011      0.269026
   11 Atom       -0.330906     -0.077594      0.408500
   12 Atom       -0.407959      0.140262      0.267698
   13 Atom       -0.530128      0.216591      0.313538
   14 Atom       -0.360530      0.112786      0.247743
   15 Atom       -0.299122      0.143148      0.155974
   16 Atom       -0.302336      0.141309      0.161027
   17 Atom       -0.299455      0.133870      0.165585
   18 Atom       -0.308219      0.141336      0.166883
   19 Atom       -0.286796      0.129457      0.157339
   20 Atom       -0.280801      0.132017      0.148784
   21 Atom       -0.280801      0.132017      0.148784
   22 Atom       -0.286796      0.129457      0.157339
   23 Atom       -0.299455      0.133870      0.165585
   24 Atom       -0.302336      0.141309      0.161027
   25 Atom       -0.299122      0.143148      0.155974
   26 Atom       -0.308219      0.141336      0.166883
 -----------------------------------------------------

 Test job not archived.
 1|1|UNPC-NP-ALMACH|FOpt|RB3LYP|6-311++G(d,p)|C12H12N2(2+)|HERA|06-Aug-
 2018|0||# RB3LYP/6-311++G** Opt Test prop=EFG||C12N2H12||2,1|C,2.76660
 58042,-1.8752828612,0.2411653011|C,3.5074688988,-0.7045016594,0.109771
 4592|C,2.837588502,0.4885166919,-0.0958729462|N,1.488970896,0.52324641
 96,-0.1837223852|C,0.7334274595,-0.6135832383,-0.086081814|C,1.3755361
 7,-1.8241310958,0.1469815808|C,0.7941384141,1.817880928,-0.4210249692|
 C,-0.4827048031,1.8521372028,0.3949621466|N,-1.3385789877,0.6974503219
 ,0.0084900175|C,-0.737041028,-0.5080259531,-0.2318021221|C,-2.67946189
 97,0.8498181835,-0.0721954126|C,-3.497593553,-0.2119524115,-0.41516183
 14|C,-2.9147709019,-1.4448455862,-0.6929445559|C,-1.5297080995,-1.5873
 564325,-0.6043243853|H,3.2611869281,-2.8224790928,0.4233682966|H,4.588
 1443906,-0.7015113363,0.1776807826|H,3.3506785355,1.4369888647,-0.1922
 163128|H,0.7949131858,-2.7271401448,0.2759204148|H,1.4556841413,2.6265
 545833,-0.1143301918|H,0.5959762215,1.9115258065,-1.492115668|H,-0.282
 5357724,1.7890147675,1.4679117338|H,-1.0306472542,2.7712823937,0.19349
 57389|H,-3.0651871661,1.8384670337,0.1421229639|H,-4.5680703242,-0.059
 8284317,-0.473624729|H,-3.5272252847,-2.2904120907,-0.9843309573|H,-1.
 0708394729,-2.5361378627,-0.8460411551||Version=EM64W-G09RevD.01|State
 =1-A|HF=-573.5625883|RMSD=7.547e-009|RMSF=2.198e-005|Dipole=0.0338979,
 0.5155614,0.0313988|Quadrupole=27.0711205,0.2590772,-27.3301977,-2.008
 4887,3.9833356,1.4155554|PG=C01 [X(C12H12N2)]||@


 A SOLDIER'S LIFE IS A LIFE OF HONOR, BUT A DOG WOULD NOT LEAD IT.
 -- PRINCE RUPERT, FOUNDER OF THE HUDSON'S BAY COMPANY
 Job cpu time:       0 days  0 hours 18 minutes 55.0 seconds.
 File lengths (MBytes):  RWF=     81 Int=      0 D2E=      0 Chk=     14 Scr=      1
 Normal termination of Gaussian 09 at Mon Aug 06 19:07:02 2018.
