 Entering Link 1 = C:\G09W\l1.exe PID=     70048.
  
 Copyright (c) 1988,1990,1992,1993,1995,1998,2003,2009,2013,
            Gaussian, Inc.  All Rights Reserved.
  
 This is part of the Gaussian(R) 09 program.  It is based on
 the Gaussian(R) 03 system (copyright 2003, Gaussian, Inc.),
 the Gaussian(R) 98 system (copyright 1998, Gaussian, Inc.),
 the Gaussian(R) 94 system (copyright 1995, Gaussian, Inc.),
 the Gaussian 92(TM) system (copyright 1992, Gaussian, Inc.),
 the Gaussian 90(TM) system (copyright 1990, Gaussian, Inc.),
 the Gaussian 88(TM) system (copyright 1988, Gaussian, Inc.),
 the Gaussian 86(TM) system (copyright 1986, Carnegie Mellon
 University), and the Gaussian 82(TM) system (copyright 1983,
 Carnegie Mellon University). Gaussian is a federally registered
 trademark of Gaussian, Inc.
  
 This software contains proprietary and confidential information,
 including trade secrets, belonging to Gaussian, Inc.
  
 This software is provided under written license and may be
 used, copied, transmitted, or stored only in accord with that
 written license.
  
 The following legend is applicable only to US Government
 contracts under FAR:
  
                    RESTRICTED RIGHTS LEGEND
  
 Use, reproduction and disclosure by the US Government is
 subject to restrictions as set forth in subparagraphs (a)
 and (c) of the Commercial Computer Software - Restricted
 Rights clause in FAR 52.227-19.
  
 Gaussian, Inc.
 340 Quinnipiac St., Bldg. 40, Wallingford CT 06492
  
  
 ---------------------------------------------------------------
 Warning -- This program may not be used in any manner that
 competes with the business of Gaussian, Inc. or will provide
 assistance to any competitor of Gaussian, Inc.  The licensee
 of this program is prohibited from giving any competitor of
 Gaussian, Inc. access to this program.  By using this program,
 the user acknowledges that Gaussian, Inc. is engaged in the
 business of creating and licensing software in the field of
 computational chemistry and represents and warrants to the
 licensee that it is not a competitor of Gaussian, Inc. and that
 it will not use this program in any manner prohibited above.
 ---------------------------------------------------------------
  

 Cite this work as:
 Gaussian 09, Revision D.01,
 M. J. Frisch, G. W. Trucks, H. B. Schlegel, G. E. Scuseria, 
 M. A. Robb, J. R. Cheeseman, G. Scalmani, V. Barone, B. Mennucci, 
 G. A. Petersson, H. Nakatsuji, M. Caricato, X. Li, H. P. Hratchian, 
 A. F. Izmaylov, J. Bloino, G. Zheng, J. L. Sonnenberg, M. Hada, 
 M. Ehara, K. Toyota, R. Fukuda, J. Hasegawa, M. Ishida, T. Nakajima, 
 Y. Honda, O. Kitao, H. Nakai, T. Vreven, J. A. Montgomery, Jr., 
 J. E. Peralta, F. Ogliaro, M. Bearpark, J. J. Heyd, E. Brothers, 
 K. N. Kudin, V. N. Staroverov, T. Keith, R. Kobayashi, J. Normand, 
 K. Raghavachari, A. Rendell, J. C. Burant, S. S. Iyengar, J. Tomasi, 
 M. Cossi, N. Rega, J. M. Millam, M. Klene, J. E. Knox, J. B. Cross, 
 V. Bakken, C. Adamo, J. Jaramillo, R. Gomperts, R. E. Stratmann, 
 O. Yazyev, A. J. Austin, R. Cammi, C. Pomelli, J. W. Ochterski, 
 R. L. Martin, K. Morokuma, V. G. Zakrzewski, G. A. Voth, 
 P. Salvador, J. J. Dannenberg, S. Dapprich, A. D. Daniels, 
 O. Farkas, J. B. Foresman, J. V. Ortiz, J. Cioslowski, 
 and D. J. Fox, Gaussian, Inc., Wallingford CT, 2013.
 
 ******************************************
 Gaussian 09:  EM64W-G09RevD.01 13-Apr-2013
                15-Aug-2018 
 ******************************************
 %Chk=Anth_235.chk
 %Mem=64GB
 %NProcShared=20
 Will use up to   20 processors via shared memory.
 -------------------------------------
 # RB3LYP/6-311++G** Opt Test prop=EFG
 -------------------------------------
 1/14=-1,18=20,19=15,26=3,38=1/1,3;
 2/9=110,12=2,17=6,18=5,40=1/2;
 3/5=4,6=6,7=1111,11=2,16=1,25=1,30=1,71=1,74=-5,116=1/1,2,3;
 4//1;
 5/5=2,38=5/2;
 6/7=2,8=2,9=2,10=2,14=1,28=1/1,2;
 7//1,2,3,16;
 1/14=-1,18=20,19=15,26=3/3(2);
 2/9=110/2;
 99//99;
 2/9=110/2;
 3/5=4,6=6,7=1111,11=2,16=1,25=1,30=1,71=1,74=-5,116=1/1,2,3;
 4/5=5,16=3,69=1/1;
 5/5=2,38=5/2;
 7//1,2,3,16;
 1/14=-1,18=20,19=15,26=3/3(-5);
 2/9=110/2;
 6/7=2,8=2,9=2,10=2,14=1,19=2,28=1/1,2;
 99/9=1/99;
 ---------
 C15N2H15O
 ---------
 Symbolic Z-matrix:
 Charge =  1 Multiplicity = 1
 C                    -3.90357   1.03086   0.65472 
 C                    -3.90964  -0.31072   0.58673 
 C                    -2.73668  -0.94215   0.4075 
 C                    -1.56745  -0.28334   0.295 
 C                    -1.58733   1.06197   0.36668 
 C                    -2.75206   1.7096    0.54543 
 O                    -0.4075   -0.9834    0.11399 
 C                     0.74055  -0.24905   0.00984 
 C                     0.74058   1.09538   0.07919 
 C                    -0.42843   1.73469   0.25696 
 C                     1.92074  -0.87274  -0.1683 
 C                     3.09449  -0.22164  -0.27964 
 C                     3.05908   1.12072  -0.2059 
 C                     1.89824   1.76964  -0.02911 
 N                    -5.03182  -0.89981   0.69704 
 C                    -5.26583  -2.35703   0.6515 
 N                     4.20766  -0.89152  -0.45163 
 C                     5.58247  -0.26929  -0.58873 
 H                    -4.84105   1.59501   0.80105 
 H                    -2.69751  -2.04213   0.34625 
 H                    -2.78359   2.81114   0.60597 
 H                    -0.43625   2.83705   0.31478 
 H                     1.89705  -1.97536  -0.22229 
 H                     3.97602   1.7263   -0.28773 
 H                     1.91468   2.87193   0.02588 
 H                    -5.86375  -0.27268   0.83342 
 H                    -4.7283   -2.87193   1.47957 
 H                    -6.3547   -2.55144   0.77775 
 H                    -4.95489  -2.77882  -0.33094 
 H                     4.16958  -1.91939  -0.50017 
 H                     5.84847   0.30273   0.32903 
 H                     6.3547   -1.06052  -0.72557 
 H                     5.62528   0.39766  -1.47957 
 

 GradGradGradGradGradGradGradGradGradGradGradGradGradGradGradGradGradGrad
 Berny optimization.
 Initialization pass.
                           ----------------------------
                           !    Initial Parameters    !
                           ! (Angstroms and Degrees)  !
 --------------------------                            --------------------------
 ! Name  Definition              Value          Derivative Info.                !
 --------------------------------------------------------------------------------
 ! R1    R(1,2)                  1.3433         estimate D2E/DX2                !
 ! R2    R(1,6)                  1.3411         estimate D2E/DX2                !
 ! R3    R(1,19)                 1.1039         estimate D2E/DX2                !
 ! R4    R(2,3)                  1.3441         estimate D2E/DX2                !
 ! R5    R(2,15)                 1.2722         estimate D2E/DX2                !
 ! R6    R(3,4)                  1.3468         estimate D2E/DX2                !
 ! R7    R(3,20)                 1.1024         estimate D2E/DX2                !
 ! R8    R(4,5)                  1.3474         estimate D2E/DX2                !
 ! R9    R(4,7)                  1.3669         estimate D2E/DX2                !
 ! R10   R(5,6)                  1.3446         estimate D2E/DX2                !
 ! R11   R(5,10)                 1.3445         estimate D2E/DX2                !
 ! R12   R(6,21)                 1.1037         estimate D2E/DX2                !
 ! R13   R(7,8)                  1.3668         estimate D2E/DX2                !
 ! R14   R(8,9)                  1.3462         estimate D2E/DX2                !
 ! R15   R(8,11)                 1.3467         estimate D2E/DX2                !
 ! R16   R(9,10)                 1.3442         estimate D2E/DX2                !
 ! R17   R(9,14)                 1.3441         estimate D2E/DX2                !
 ! R18   R(10,22)                1.1039         estimate D2E/DX2                !
 ! R19   R(11,12)                1.3469         estimate D2E/DX2                !
 ! R20   R(11,23)                1.1042         estimate D2E/DX2                !
 ! R21   R(12,13)                1.3449         estimate D2E/DX2                !
 ! R22   R(12,17)                1.3105         estimate D2E/DX2                !
 ! R23   R(13,14)                1.3416         estimate D2E/DX2                !
 ! R24   R(13,24)                1.1019         estimate D2E/DX2                !
 ! R25   R(14,25)                1.1038         estimate D2E/DX2                !
 ! R26   R(15,16)                1.4766         estimate D2E/DX2                !
 ! R27   R(15,26)                1.0507         estimate D2E/DX2                !
 ! R28   R(16,27)                1.1134         estimate D2E/DX2                !
 ! R29   R(16,28)                1.1133         estimate D2E/DX2                !
 ! R30   R(16,29)                1.1135         estimate D2E/DX2                !
 ! R31   R(17,18)                1.5153         estimate D2E/DX2                !
 ! R32   R(17,30)                1.0297         estimate D2E/DX2                !
 ! R33   R(18,31)                1.1137         estimate D2E/DX2                !
 ! R34   R(18,32)                1.1141         estimate D2E/DX2                !
 ! R35   R(18,33)                1.1137         estimate D2E/DX2                !
 ! A1    A(2,1,6)              120.3447         estimate D2E/DX2                !
 ! A2    A(2,1,19)             120.8817         estimate D2E/DX2                !
 ! A3    A(6,1,19)             118.7737         estimate D2E/DX2                !
 ! A4    A(1,2,3)              118.1626         estimate D2E/DX2                !
 ! A5    A(1,2,15)             117.5194         estimate D2E/DX2                !
 ! A6    A(3,2,15)             124.3179         estimate D2E/DX2                !
 ! A7    A(2,3,4)              122.6123         estimate D2E/DX2                !
 ! A8    A(2,3,20)             120.476          estimate D2E/DX2                !
 ! A9    A(4,3,20)             116.9117         estimate D2E/DX2                !
 ! A10   A(3,4,5)              118.1109         estimate D2E/DX2                !
 ! A11   A(3,4,7)              119.8194         estimate D2E/DX2                !
 ! A12   A(5,4,7)              122.0697         estimate D2E/DX2                !
 ! A13   A(4,5,6)              120.0509         estimate D2E/DX2                !
 ! A14   A(4,5,10)             118.851          estimate D2E/DX2                !
 ! A15   A(6,5,10)             121.0981         estimate D2E/DX2                !
 ! A16   A(1,6,5)              120.7186         estimate D2E/DX2                !
 ! A17   A(1,6,21)             118.4332         estimate D2E/DX2                !
 ! A18   A(5,6,21)             120.8481         estimate D2E/DX2                !
 ! A19   A(4,7,8)              116.5974         estimate D2E/DX2                !
 ! A20   A(7,8,9)              122.1849         estimate D2E/DX2                !
 ! A21   A(7,8,11)             119.8256         estimate D2E/DX2                !
 ! A22   A(9,8,11)             117.9895         estimate D2E/DX2                !
 ! A23   A(8,9,10)             118.8007         estimate D2E/DX2                !
 ! A24   A(8,9,14)             119.7922         estimate D2E/DX2                !
 ! A25   A(10,9,14)            121.407          estimate D2E/DX2                !
 ! A26   A(5,10,9)             121.4961         estimate D2E/DX2                !
 ! A27   A(5,10,22)            119.2931         estimate D2E/DX2                !
 ! A28   A(9,10,22)            119.2108         estimate D2E/DX2                !
 ! A29   A(8,11,12)            123.4202         estimate D2E/DX2                !
 ! A30   A(8,11,23)            116.7521         estimate D2E/DX2                !
 ! A31   A(12,11,23)           119.8278         estimate D2E/DX2                !
 ! A32   A(11,12,13)           117.0684         estimate D2E/DX2                !
 ! A33   A(11,12,17)           120.2637         estimate D2E/DX2                !
 ! A34   A(13,12,17)           122.6679         estimate D2E/DX2                !
 ! A35   A(12,13,14)           120.8505         estimate D2E/DX2                !
 ! A36   A(12,13,24)           121.5049         estimate D2E/DX2                !
 ! A37   A(14,13,24)           117.6446         estimate D2E/DX2                !
 ! A38   A(9,14,13)            120.8792         estimate D2E/DX2                !
 ! A39   A(9,14,25)            120.6503         estimate D2E/DX2                !
 ! A40   A(13,14,25)           118.4705         estimate D2E/DX2                !
 ! A41   A(2,15,16)            126.4479         estimate D2E/DX2                !
 ! A42   A(2,15,26)            115.6761         estimate D2E/DX2                !
 ! A43   A(16,15,26)           117.876          estimate D2E/DX2                !
 ! A44   A(15,16,27)           110.9117         estimate D2E/DX2                !
 ! A45   A(15,16,28)           108.8955         estimate D2E/DX2                !
 ! A46   A(15,16,29)           110.9039         estimate D2E/DX2                !
 ! A47   A(27,16,28)           107.8835         estimate D2E/DX2                !
 ! A48   A(27,16,29)           110.2555         estimate D2E/DX2                !
 ! A49   A(28,16,29)           107.8811         estimate D2E/DX2                !
 ! A50   A(12,17,18)           124.9345         estimate D2E/DX2                !
 ! A51   A(12,17,30)           119.0132         estimate D2E/DX2                !
 ! A52   A(18,17,30)           116.0524         estimate D2E/DX2                !
 ! A53   A(17,18,31)           110.6748         estimate D2E/DX2                !
 ! A54   A(17,18,32)           110.3881         estimate D2E/DX2                !
 ! A55   A(17,18,33)           110.6822         estimate D2E/DX2                !
 ! A56   A(31,18,32)           107.4848         estimate D2E/DX2                !
 ! A57   A(31,18,33)           110.0247         estimate D2E/DX2                !
 ! A58   A(32,18,33)           107.4838         estimate D2E/DX2                !
 ! D1    D(6,1,2,3)             -0.0047         estimate D2E/DX2                !
 ! D2    D(6,1,2,15)           179.9956         estimate D2E/DX2                !
 ! D3    D(19,1,2,3)          -179.9982         estimate D2E/DX2                !
 ! D4    D(19,1,2,15)            0.0021         estimate D2E/DX2                !
 ! D5    D(2,1,6,5)             -0.0091         estimate D2E/DX2                !
 ! D6    D(2,1,6,21)          -179.9912         estimate D2E/DX2                !
 ! D7    D(19,1,6,5)           179.9845         estimate D2E/DX2                !
 ! D8    D(19,1,6,21)            0.0025         estimate D2E/DX2                !
 ! D9    D(1,2,3,4)              0.0067         estimate D2E/DX2                !
 ! D10   D(1,2,3,20)           179.9984         estimate D2E/DX2                !
 ! D11   D(15,2,3,4)          -179.9936         estimate D2E/DX2                !
 ! D12   D(15,2,3,20)           -0.0019         estimate D2E/DX2                !
 ! D13   D(1,2,15,16)          179.9926         estimate D2E/DX2                !
 ! D14   D(1,2,15,26)           -0.0047         estimate D2E/DX2                !
 ! D15   D(3,2,15,16)           -0.0071         estimate D2E/DX2                !
 ! D16   D(3,2,15,26)          179.9956         estimate D2E/DX2                !
 ! D17   D(2,3,4,5)              0.0051         estimate D2E/DX2                !
 ! D18   D(2,3,4,7)            179.9948         estimate D2E/DX2                !
 ! D19   D(20,3,4,5)          -179.9868         estimate D2E/DX2                !
 ! D20   D(20,3,4,7)             0.0028         estimate D2E/DX2                !
 ! D21   D(3,4,5,6)             -0.019          estimate D2E/DX2                !
 ! D22   D(3,4,5,10)           179.9629         estimate D2E/DX2                !
 ! D23   D(7,4,5,6)            179.9916         estimate D2E/DX2                !
 ! D24   D(7,4,5,10)            -0.0264         estimate D2E/DX2                !
 ! D25   D(3,4,7,8)           -179.9148         estimate D2E/DX2                !
 ! D26   D(5,4,7,8)              0.0744         estimate D2E/DX2                !
 ! D27   D(4,5,6,1)              0.0213         estimate D2E/DX2                !
 ! D28   D(4,5,6,21)          -179.9971         estimate D2E/DX2                !
 ! D29   D(10,5,6,1)          -179.9602         estimate D2E/DX2                !
 ! D30   D(10,5,6,21)            0.0214         estimate D2E/DX2                !
 ! D31   D(4,5,10,9)            -0.0349         estimate D2E/DX2                !
 ! D32   D(4,5,10,22)         -179.9915         estimate D2E/DX2                !
 ! D33   D(6,5,10,9)           179.9468         estimate D2E/DX2                !
 ! D34   D(6,5,10,22)           -0.0098         estimate D2E/DX2                !
 ! D35   D(4,7,8,9)             -0.0653         estimate D2E/DX2                !
 ! D36   D(4,7,8,11)           179.9332         estimate D2E/DX2                !
 ! D37   D(7,8,9,10)             0.0085         estimate D2E/DX2                !
 ! D38   D(7,8,9,14)           179.9932         estimate D2E/DX2                !
 ! D39   D(11,8,9,10)         -179.99           estimate D2E/DX2                !
 ! D40   D(11,8,9,14)           -0.0053         estimate D2E/DX2                !
 ! D41   D(7,8,11,12)         -179.9858         estimate D2E/DX2                !
 ! D42   D(7,8,11,23)            0.0034         estimate D2E/DX2                !
 ! D43   D(9,8,11,12)            0.0128         estimate D2E/DX2                !
 ! D44   D(9,8,11,23)         -179.9979         estimate D2E/DX2                !
 ! D45   D(8,9,10,5)             0.0437         estimate D2E/DX2                !
 ! D46   D(8,9,10,22)         -179.9997         estimate D2E/DX2                !
 ! D47   D(14,9,10,5)         -179.9408         estimate D2E/DX2                !
 ! D48   D(14,9,10,22)           0.0159         estimate D2E/DX2                !
 ! D49   D(8,9,14,13)           -0.0073         estimate D2E/DX2                !
 ! D50   D(8,9,14,25)         -179.9903         estimate D2E/DX2                !
 ! D51   D(10,9,14,13)         179.9769         estimate D2E/DX2                !
 ! D52   D(10,9,14,25)          -0.006          estimate D2E/DX2                !
 ! D53   D(8,11,12,13)          -0.007          estimate D2E/DX2                !
 ! D54   D(8,11,12,17)         179.9865         estimate D2E/DX2                !
 ! D55   D(23,11,12,13)       -179.996          estimate D2E/DX2                !
 ! D56   D(23,11,12,17)         -0.0024         estimate D2E/DX2                !
 ! D57   D(11,12,13,14)         -0.0062         estimate D2E/DX2                !
 ! D58   D(11,12,13,24)        179.9915         estimate D2E/DX2                !
 ! D59   D(17,12,13,14)       -179.9996         estimate D2E/DX2                !
 ! D60   D(17,12,13,24)         -0.0019         estimate D2E/DX2                !
 ! D61   D(11,12,17,18)       -179.9752         estimate D2E/DX2                !
 ! D62   D(11,12,17,30)          0.0147         estimate D2E/DX2                !
 ! D63   D(13,12,17,18)          0.0179         estimate D2E/DX2                !
 ! D64   D(13,12,17,30)       -179.9922         estimate D2E/DX2                !
 ! D65   D(12,13,14,9)           0.0134         estimate D2E/DX2                !
 ! D66   D(12,13,14,25)        179.9967         estimate D2E/DX2                !
 ! D67   D(24,13,14,9)        -179.9844         estimate D2E/DX2                !
 ! D68   D(24,13,14,25)         -0.0011         estimate D2E/DX2                !
 ! D69   D(2,15,16,27)          61.4376         estimate D2E/DX2                !
 ! D70   D(2,15,16,28)        -179.9914         estimate D2E/DX2                !
 ! D71   D(2,15,16,29)         -61.4279         estimate D2E/DX2                !
 ! D72   D(26,15,16,27)       -118.5652         estimate D2E/DX2                !
 ! D73   D(26,15,16,28)          0.0058         estimate D2E/DX2                !
 ! D74   D(26,15,16,29)        118.5692         estimate D2E/DX2                !
 ! D75   D(12,17,18,31)         61.1593         estimate D2E/DX2                !
 ! D76   D(12,17,18,32)       -179.9693         estimate D2E/DX2                !
 ! D77   D(12,17,18,33)        -61.0943         estimate D2E/DX2                !
 ! D78   D(30,17,18,31)       -118.8309         estimate D2E/DX2                !
 ! D79   D(30,17,18,32)          0.0406         estimate D2E/DX2                !
 ! D80   D(30,17,18,33)        118.9155         estimate D2E/DX2                !
 --------------------------------------------------------------------------------
 Trust Radius=3.00D-01 FncErr=1.00D-07 GrdErr=1.00D-06
 Number of steps in this run=    183 maximum allowed number of steps=    198.
 GradGradGradGradGradGradGradGradGradGradGradGradGradGradGradGradGradGrad

                          Input orientation:                          
 ---------------------------------------------------------------------
 Center     Atomic      Atomic             Coordinates (Angstroms)
 Number     Number       Type             X           Y           Z
 ---------------------------------------------------------------------
      1          6           0       -3.903565    1.030862    0.654723
      2          6           0       -3.909635   -0.310717    0.586727
      3          6           0       -2.736684   -0.942151    0.407501
      4          6           0       -1.567448   -0.283336    0.294999
      5          6           0       -1.587328    1.061965    0.366681
      6          6           0       -2.752064    1.709600    0.545425
      7          8           0       -0.407500   -0.983399    0.113985
      8          6           0        0.740551   -0.249053    0.009839
      9          6           0        0.740578    1.095381    0.079185
     10          6           0       -0.428429    1.734688    0.256957
     11          6           0        1.920741   -0.872742   -0.168304
     12          6           0        3.094485   -0.221639   -0.279640
     13          6           0        3.059076    1.120724   -0.205902
     14          6           0        1.898237    1.769642   -0.029110
     15          7           0       -5.031821   -0.899812    0.697039
     16          6           0       -5.265827   -2.357028    0.651500
     17          7           0        4.207660   -0.891523   -0.451625
     18          6           0        5.582467   -0.269287   -0.588732
     19          1           0       -4.841052    1.595005    0.801048
     20          1           0       -2.697505   -2.042134    0.346248
     21          1           0       -2.783589    2.811141    0.605974
     22          1           0       -0.436248    2.837052    0.314783
     23          1           0        1.897049   -1.975357   -0.222285
     24          1           0        3.976024    1.726304   -0.287730
     25          1           0        1.914684    2.871927    0.025878
     26          1           0       -5.863751   -0.272676    0.833419
     27          1           0       -4.728303   -2.871927    1.479571
     28          1           0       -6.354696   -2.551435    0.777752
     29          1           0       -4.954893   -2.778820   -0.330939
     30          1           0        4.169578   -1.919393   -0.500166
     31          1           0        5.848469    0.302727    0.329031
     32          1           0        6.354696   -1.060519   -0.725568
     33          1           0        5.625283    0.397655   -1.479571
 ---------------------------------------------------------------------
                    Distance matrix (angstroms):
                    1          2          3          4          5
     1  C    0.000000
     2  C    1.343315   0.000000
     3  C    2.305539   1.344115   0.000000
     4  C    2.704433   2.360444   1.346776   0.000000
     5  C    2.334286   2.706619   2.310664   1.347356   0.000000
     6  C    1.341114   2.328810   2.655380   2.331914   1.344615
     7  O    4.070886   3.597351   2.347967   1.366870   2.374734
     8  C    4.860234   4.686239   3.567868   2.325801   2.695390
     9  C    4.680114   4.884587   4.043597   2.697113   2.345830
    10  C    3.567935   4.051077   3.537820   2.317592   1.344486
    11  C    6.182526   5.905864   4.693397   3.567844   4.041763
    12  C    7.170390   7.058061   5.915558   4.697620   4.897422
    13  C    7.016204   7.158227   6.182439   4.860762   4.681920
    14  C    5.888491   6.199881   5.387666   4.041131   3.578634
    15  N    2.236572   1.272204   2.313715   3.541689   3.977718
    16  C    3.651516   2.455777   2.908260   4.255032   5.030108
    17  N    8.409015   8.204023   6.997469   5.854845   6.169897
    18  C    9.655121   9.564697   8.405564   7.204336   7.354659
    19  H    1.103880   2.131959   3.319699   3.807983   3.325587
    20  H    3.315576   2.127180   1.102384   2.091178   3.296717
    21  H    2.103834   3.318787   3.758829   3.339385   2.132585
    22  H    3.924305   4.695404   4.425266   3.319160   2.116273
    23  H    6.591936   6.094514   4.789115   3.890149   4.659731
    24  H    7.966165   8.191321   7.257027   5.925226   5.640965
    25  H    6.134899   6.660816   6.027276   4.706735   3.956791
    26  H    2.360820   1.969993   3.226167   4.329923   4.504099
    27  H    4.073368   2.833229   2.973200   4.253824   5.155556
    28  H    4.342353   3.321992   3.977046   5.319311   5.996118
    29  H    4.073143   2.833056   2.973062   4.253707   5.155463
    30  H    8.672567   8.309203   7.033869   6.018508   6.540786
    31  H    9.784601   9.780762   8.675294   7.439116   7.474553
    32  H   10.559877  10.375009   9.162480   8.025331   8.292990
    33  H    9.785454   9.781924   8.676325   7.439639   7.474738
                    6          7          8          9         10
     6  C    0.000000
     7  O    3.596577   0.000000
     8  C    4.039992   1.366796   0.000000
     9  C    3.576757   2.374999   1.346221   0.000000
    10  C    2.341607   2.721925   2.315774   1.344207   0.000000
    11  C    5.386372   2.347901   1.346689   2.308147   3.535271
    12  C    6.212290   3.605429   2.371825   2.721061   4.065228
    13  C    5.889025   4.067777   2.701554   2.336097   3.571258
    14  C    4.686043   3.593902   2.327420   1.344072   2.344447
    15  N    3.468330   4.661682   5.849445   6.138659   5.322169
    16  C    4.782020   5.077314   6.397802   6.951516   6.348088
    17  N    7.496513   4.650598   3.556200   4.031154   5.375165
    18  C    8.640990   6.073176   4.878816   5.074674   6.392337
    19  H    2.107687   5.174612   5.931345   5.650248   4.448234
    20  H    3.757413   2.533572   3.892112   4.662160   4.406934
    21  H    1.103654   4.504041   4.705287   3.954882   2.612918
    22  H    2.585991   3.825832   3.316910   2.115146   1.103907
    23  H    5.981851   2.531404   2.090812   3.295109   4.404765
    24  H    6.779498   5.169057   3.802482   3.316746   4.438013
    25  H    4.837300   4.501538   3.334571   2.130137   2.614744
    26  H    3.700669   5.549179   6.655497   6.786576   5.822761
    27  H    5.076272   4.909247   6.240829   6.899947   6.419081
    28  H    5.584743   6.186151   7.498879   8.008132   7.332306
    29  H    5.076060   4.909203   6.241309   6.900437   6.419210
    30  H    7.884921   4.711996   3.848164   4.602451   5.921757
    31  H    8.717528   6.390424   5.147540   5.175063   6.438568
    32  H    9.603232   6.814550   5.719958   6.067442   7.401981
    33  H    8.717898   6.390712   5.147541   5.174639   6.438215
                   11         12         13         14         15
    11  C    0.000000
    12  C    1.346850   0.000000
    13  C    2.295893   1.344853   0.000000
    14  C    2.646143   2.336445   1.341602   0.000000
    15  N    7.006259   8.212836   8.388116   7.461835   0.000000
    16  C    7.383898   8.678809   9.062776   8.295568   1.476588
    17  N    2.304479   1.310527   2.329971   3.548768   9.310613
    18  C    3.734857   2.507561   2.906233   4.247818  10.710457
    19  H    7.263006   8.212237   7.978152   6.792472   2.504261
    20  H    4.791705   6.103531   6.591416   5.982589   2.622401
    21  H    6.025049   6.673367   6.136236   4.838135   4.339817
    22  H    4.421690   4.709034   3.928636   2.589874   5.935450
    23  H    1.104190   2.124304   3.307007   3.749978   7.071859
    24  H    3.315643   2.138144   1.101915   2.094269   9.434380
    25  H    3.749705   3.324970   2.104772   1.103778   7.932869
    26  H    7.871585   9.027264   9.090577   8.072390   1.050717
    27  H    7.135967   8.444813   8.912090   8.229904   2.143296
    28  H    8.496816   9.789436  10.152410   9.350595   2.117633
    29  H    7.136801   8.445963   8.913236   8.230735   2.143205
    30  H    2.502574   2.021590   3.249941   4.357736   9.334805
    31  H    4.129905   2.868775   2.955670   4.229000  10.952728
    32  H    4.472780   3.395813   3.986099   5.324931  11.476167
    33  H    4.130007   2.868501   2.954739   4.228127  10.954219
                   16         17         18         19         20
    16  C    0.000000
    17  N    9.649432   0.000000
    18  C   11.116759   1.515279   0.000000
    19  H    3.977608   9.467376  10.679739   0.000000
    20  H    2.605497   7.045694   8.519103   4.246224   0.000000
    21  H    5.733546   7.981591   8.994846   2.397956   4.860982
    22  H    7.100470   6.004626   6.833053   4.602329   5.377800
    23  H    7.226062   2.562463   4.077654   7.693939   4.630077
    24  H   10.147293   2.633161   2.579466   8.885016   7.690191
    25  H    8.904668   4.432754   4.868018   6.918915   6.747067
    26  H    2.176036  10.171904  11.534229   2.129599   3.659704
    27  H    1.113443   9.354301  10.833448   4.519578   2.469234
    28  H    1.113270  10.762437  12.229936   4.414139   3.717611
    29  H    1.113452   9.355685  10.835136   4.519369   2.469228
    30  H    9.515499   1.029720   2.174155   9.758873   6.920138
    31  H   11.432666   2.174376   1.113663  10.777692   8.861848
    32  H   11.773436   2.171029   1.114051  11.607202   9.168135
    33  H   11.434423   2.174467   1.113660  10.778638   8.863125
                   21         22         23         24         25
    21  H    0.000000
    22  H    2.365475   0.000000
    23  H    6.745736   5.375128   0.000000
    24  H    6.904198   4.589654   4.246023   0.000000
    25  H    4.734340   2.368874   4.853664   2.379060   0.000000
    26  H    4.364522   6.276717   8.015214  10.103171   8.428802
    27  H    6.069790   7.236775   6.898945  10.001619   8.901368
    28  H    6.445117   8.017366   8.332061  11.232011   9.917702
    29  H    6.069599   7.236928   6.899744  10.002964   8.902210
    30  H    8.482218   6.670948   2.290139   3.657007   5.321468
    31  H    8.993401   6.776479   4.594272   2.431669   4.708222
    32  H   10.013541   7.898754   4.578301   3.690009   5.978504
    33  H    8.993528   6.775878   4.594745   2.430195   4.707116
                   26         27         28         29         30
    26  H    0.000000
    27  H    2.909100   0.000000
    28  H    2.331709   1.800116   0.000000
    29  H    2.909039   1.827008   1.800097   0.000000
    30  H   10.254649   9.165095  10.620400   9.166418   0.000000
    31  H   11.737188  11.102715  12.540527  11.253627   2.905866
    32  H   12.342673  11.444505  12.884543  11.446182   2.358646
    33  H   11.738704  11.253596  12.542429  11.106281   2.906376
                   31         32         33
    31  H    0.000000
    32  H    1.796353   0.000000
    33  H    1.824792   1.796339   0.000000
 Stoichiometry    C15H15N2O(1+)
 Framework group  C1[X(C15H15N2O)]
 Deg. of freedom    93
 Full point group                 C1      NOp   1
 Largest Abelian subgroup         C1      NOp   1
 Largest concise Abelian subgroup C1      NOp   1
                         Standard orientation:                         
 ---------------------------------------------------------------------
 Center     Atomic      Atomic             Coordinates (Angstroms)
 Number     Number       Type             X           Y           Z
 ---------------------------------------------------------------------
      1          6           0       -3.513240    1.298459    0.000957
      2          6           0       -3.613535   -0.041106    0.000633
      3          6           0       -2.479221   -0.762199   -0.000649
      4          6           0       -1.258064   -0.194235   -0.001479
      5          6           0       -1.183613    1.151062   -0.000885
      6          6           0       -2.308501    1.887688    0.000112
      7          8           0       -0.141647   -0.982870   -0.002665
      8          6           0        1.063307   -0.337721   -0.001640
      9          6           0        1.157677    1.005189   -0.000867
     10          6           0        0.028041    1.733760   -0.000938
     11          6           0        2.205249   -1.051541   -0.001349
     12          6           0        3.430141   -0.491501   -0.000078
     13          6           0        3.488750    0.852074    0.000790
     14          6           0        2.368050    1.589589    0.000267
     15          7           0       -4.782533   -0.543048    0.001561
     16          6           0       -5.119971   -1.980562    0.001273
     17          7           0        4.501483   -1.246291    0.000400
     18          6           0        5.926283   -0.730526    0.002346
     19          1           0       -4.415674    1.934196    0.002026
     20          1           0       -2.517087   -1.863932   -0.000930
     21          1           0       -2.262855    2.990397    0.000559
     22          1           0        0.097542    2.835477   -0.000312
     23          1           0        2.104077   -2.151085   -0.002031
     24          1           0        4.452439    1.386413    0.001987
     25          1           0        2.461905    2.689370    0.001072
     26          1           0       -5.574480    0.147477    0.002588
     27          1           0       -4.725769   -2.481501    0.914191
     28          1           0       -6.227765   -2.090845    0.002152
     29          1           0       -4.727346   -2.480623   -0.912816
     30          1           0        4.391122   -2.270079   -0.000441
     31          1           0        6.123960   -0.124882    0.915782
     32          1           0        6.646660   -1.580329    0.001811
     33          1           0        6.125665   -0.122314   -0.909007
 ---------------------------------------------------------------------
 Rotational constants (GHZ):      1.4356445      0.1957758      0.1726777
 Standard basis: 6-311++G(d,p) (5D, 7F)
 There are   519 symmetry adapted cartesian basis functions of A   symmetry.
 There are   501 symmetry adapted basis functions of A   symmetry.
   501 basis functions,   783 primitive gaussians,   519 cartesian basis functions
    63 alpha electrons       63 beta electrons
       nuclear repulsion energy      1243.3779790469 Hartrees.
 NAtoms=   33 NActive=   33 NUniq=   33 SFac= 1.00D+00 NAtFMM=   60 NAOKFM=F Big=F
 Integral buffers will be    131072 words long.
 Raffenetti 2 integral format.
 Two-electron integral symmetry is turned on.
 One-electron integrals computed using PRISM.
 NBasis=   501 RedAO= T EigKep=  1.34D-06  NBF=   501
 NBsUse=   493 1.00D-06 EigRej=  9.55D-07 NBFU=   493
 ExpMin= 3.60D-02 ExpMax= 8.59D+03 ExpMxC= 1.30D+03 IAcc=3 IRadAn=         5 AccDes= 0.00D+00
 Harris functional with IExCor=  402 and IRadAn=       5 diagonalized for initial guess.
 HarFok:  IExCor=  402 AccDes= 0.00D+00 IRadAn=         5 IDoV= 1 UseB2=F ITyADJ=14
 ICtDFT=  3500011 ScaDFX=  1.000000  1.000000  1.000000  1.000000
 FoFCou: FMM=F IPFlag=           0 FMFlag=      100000 FMFlg1=           0
         NFxFlg=           0 DoJE=T BraDBF=F KetDBF=T FulRan=T
         wScrn=  0.000000 ICntrl=     500 IOpCl=  0 I1Cent=   200000004 NGrid=           0
         NMat0=    1 NMatS0=      1 NMatT0=    0 NMatD0=    1 NMtDS0=    0 NMtDT0=    0
 Petite list used in FoFCou.
 Keep R1 ints in memory in canonical form, NReq=7977864493.
 Requested convergence on RMS density matrix=1.00D-08 within 128 cycles.
 Requested convergence on MAX density matrix=1.00D-06.
 Requested convergence on             energy=1.00D-06.
 No special actions if energy rises.
 SCF Done:  E(RB3LYP) =  -765.285072174     A.U. after   15 cycles
            NFock= 15  Conv=0.36D-08     -V/T= 2.0017

 **********************************************************************

            Population analysis using the SCF density.

 **********************************************************************

 Orbital symmetries:
       Occupied  (A) (A) (A) (A) (A) (A) (A) (A) (A) (A) (A) (A)
                 (A) (A) (A) (A) (A) (A) (A) (A) (A) (A) (A) (A)
                 (A) (A) (A) (A) (A) (A) (A) (A) (A) (A) (A) (A)
                 (A) (A) (A) (A) (A) (A) (A) (A) (A) (A) (A) (A)
                 (A) (A) (A) (A) (A) (A) (A) (A) (A) (A) (A) (A)
                 (A) (A) (A)
       Virtual   (A) (A) (A) (A) (A) (A) (A) (A) (A) (A) (A) (A)
                 (A) (A) (A) (A) (A) (A) (A) (A) (A) (A) (A) (A)
                 (A) (A) (A) (A) (A) (A) (A) (A) (A) (A) (A) (A)
                 (A) (A) (A) (A) (A) (A) (A) (A) (A) (A) (A) (A)
                 (A) (A) (A) (A) (A) (A) (A) (A) (A) (A) (A) (A)
                 (A) (A) (A) (A) (A) (A) (A) (A) (A) (A) (A) (A)
                 (A) (A) (A) (A) (A) (A) (A) (A) (A) (A) (A) (A)
                 (A) (A) (A) (A) (A) (A) (A) (A) (A) (A) (A) (A)
                 (A) (A) (A) (A) (A) (A) (A) (A) (A) (A) (A) (A)
                 (A) (A) (A) (A) (A) (A) (A) (A) (A) (A) (A) (A)
                 (A) (A) (A) (A) (A) (A) (A) (A) (A) (A) (A) (A)
                 (A) (A) (A) (A) (A) (A) (A) (A) (A) (A) (A) (A)
                 (A) (A) (A) (A) (A) (A) (A) (A) (A) (A) (A) (A)
                 (A) (A) (A) (A) (A) (A) (A) (A) (A) (A) (A) (A)
                 (A) (A) (A) (A) (A) (A) (A) (A) (A) (A) (A) (A)
                 (A) (A) (A) (A) (A) (A) (A) (A) (A) (A) (A) (A)
                 (A) (A) (A) (A) (A) (A) (A) (A) (A) (A) (A) (A)
                 (A) (A) (A) (A) (A) (A) (A) (A) (A) (A) (A) (A)
                 (A) (A) (A) (A) (A) (A) (A) (A) (A) (A) (A) (A)
                 (A) (A) (A) (A) (A) (A) (A) (A) (A) (A) (A) (A)
                 (A) (A) (A) (A) (A) (A) (A) (A) (A) (A) (A) (A)
                 (A) (A) (A) (A) (A) (A) (A) (A) (A) (A) (A) (A)
                 (A) (A) (A) (A) (A) (A) (A) (A) (A) (A) (A) (A)
                 (A) (A) (A) (A) (A) (A) (A) (A) (A) (A) (A) (A)
                 (A) (A) (A) (A) (A) (A) (A) (A) (A) (A) (A) (A)
                 (A) (A) (A) (A) (A) (A) (A) (A) (A) (A) (A) (A)
                 (A) (A) (A) (A) (A) (A) (A) (A) (A) (A) (A) (A)
                 (A) (A) (A) (A) (A) (A) (A) (A) (A) (A) (A) (A)
                 (A) (A) (A) (A) (A) (A) (A) (A) (A) (A) (A) (A)
                 (A) (A) (A) (A) (A) (A) (A) (A) (A) (A) (A) (A)
                 (A) (A) (A) (A) (A) (A) (A) (A) (A) (A) (A) (A)
                 (A) (A) (A) (A) (A) (A) (A) (A) (A) (A) (A) (A)
                 (A) (A) (A) (A) (A) (A) (A) (A) (A) (A) (A) (A)
                 (A) (A) (A) (A) (A) (A) (A) (A) (A) (A) (A) (A)
                 (A) (A) (A) (A) (A) (A) (A) (A) (A) (A) (A) (A)
                 (A) (A) (A) (A) (A) (A) (A) (A) (A) (A)
 The electronic state is 1-A.
 Alpha  occ. eigenvalues --  -19.32869 -14.47582 -14.47043 -10.37718 -10.37388
 Alpha  occ. eigenvalues --  -10.34681 -10.34495 -10.33104 -10.33100 -10.32998
 Alpha  occ. eigenvalues --  -10.30637 -10.30617 -10.30216 -10.30118 -10.29385
 Alpha  occ. eigenvalues --  -10.29158 -10.29142 -10.29129  -1.25163  -1.11107
 Alpha  occ. eigenvalues --   -1.09080  -1.03200  -1.02192  -0.95394  -0.92182
 Alpha  occ. eigenvalues --   -0.89989  -0.88741  -0.84984  -0.82350  -0.80194
 Alpha  occ. eigenvalues --   -0.78214  -0.77754  -0.74440  -0.72100  -0.70223
 Alpha  occ. eigenvalues --   -0.67583  -0.66344  -0.64476  -0.62802  -0.62105
 Alpha  occ. eigenvalues --   -0.61407  -0.58746  -0.58465  -0.58135  -0.56838
 Alpha  occ. eigenvalues --   -0.56659  -0.55815  -0.55115  -0.54610  -0.52976
 Alpha  occ. eigenvalues --   -0.52814  -0.51640  -0.51600  -0.51225  -0.50366
 Alpha  occ. eigenvalues --   -0.49060  -0.48858  -0.47322  -0.45812  -0.40716
 Alpha  occ. eigenvalues --   -0.38581  -0.36455  -0.33315
 Alpha virt. eigenvalues --   -0.21904  -0.13984  -0.13291  -0.11424  -0.11065
 Alpha virt. eigenvalues --   -0.10466  -0.09824  -0.09256  -0.08660  -0.07853
 Alpha virt. eigenvalues --   -0.07312  -0.07271  -0.06519  -0.05783  -0.05628
 Alpha virt. eigenvalues --   -0.05052  -0.05051  -0.04167  -0.03648  -0.03602
 Alpha virt. eigenvalues --   -0.02792  -0.02613  -0.02225  -0.01623  -0.01351
 Alpha virt. eigenvalues --   -0.01342  -0.00455  -0.00303   0.00132   0.00445
 Alpha virt. eigenvalues --    0.00723   0.01281   0.01471   0.01749   0.02120
 Alpha virt. eigenvalues --    0.02212   0.02496   0.02715   0.02982   0.03350
 Alpha virt. eigenvalues --    0.03768   0.04093   0.04382   0.04414   0.04559
 Alpha virt. eigenvalues --    0.05038   0.05773   0.05886   0.06170   0.06257
 Alpha virt. eigenvalues --    0.06687   0.06948   0.07090   0.07288   0.07873
 Alpha virt. eigenvalues --    0.07894   0.08431   0.08636   0.08884   0.09395
 Alpha virt. eigenvalues --    0.09830   0.09985   0.10050   0.10495   0.10783
 Alpha virt. eigenvalues --    0.11136   0.11466   0.12054   0.12442   0.12623
 Alpha virt. eigenvalues --    0.12997   0.13076   0.13788   0.14107   0.14990
 Alpha virt. eigenvalues --    0.15116   0.15439   0.15864   0.15933   0.16559
 Alpha virt. eigenvalues --    0.16949   0.17217   0.17544   0.17913   0.18225
 Alpha virt. eigenvalues --    0.18659   0.18742   0.19364   0.19708   0.20583
 Alpha virt. eigenvalues --    0.20630   0.21219   0.21519   0.22016   0.22184
 Alpha virt. eigenvalues --    0.22453   0.22915   0.23582   0.24319   0.24512
 Alpha virt. eigenvalues --    0.25057   0.25155   0.26143   0.26891   0.27335
 Alpha virt. eigenvalues --    0.27680   0.28926   0.29763   0.30025   0.30821
 Alpha virt. eigenvalues --    0.31386   0.32939   0.33884   0.33945   0.34507
 Alpha virt. eigenvalues --    0.36567   0.38141   0.38466   0.39365   0.41136
 Alpha virt. eigenvalues --    0.41190   0.42449   0.42702   0.43007   0.43735
 Alpha virt. eigenvalues --    0.44319   0.44950   0.45322   0.45456   0.47625
 Alpha virt. eigenvalues --    0.47687   0.47975   0.48133   0.48750   0.49781
 Alpha virt. eigenvalues --    0.50737   0.51189   0.52195   0.52540   0.52587
 Alpha virt. eigenvalues --    0.53562   0.53602   0.54017   0.55243   0.55694
 Alpha virt. eigenvalues --    0.55981   0.56319   0.56896   0.57050   0.57112
 Alpha virt. eigenvalues --    0.57888   0.58288   0.59029   0.59822   0.61887
 Alpha virt. eigenvalues --    0.62776   0.63164   0.63451   0.63607   0.64731
 Alpha virt. eigenvalues --    0.65160   0.66769   0.67122   0.67215   0.68218
 Alpha virt. eigenvalues --    0.69785   0.71805   0.73134   0.73628   0.75070
 Alpha virt. eigenvalues --    0.75582   0.76041   0.76152   0.77159   0.77660
 Alpha virt. eigenvalues --    0.78235   0.78935   0.79365   0.79770   0.80568
 Alpha virt. eigenvalues --    0.81206   0.81466   0.81707   0.83152   0.83279
 Alpha virt. eigenvalues --    0.83589   0.84033   0.86149   0.86476   0.87065
 Alpha virt. eigenvalues --    0.88006   0.88489   0.89170   0.91135   0.91913
 Alpha virt. eigenvalues --    0.92467   0.92751   0.94233   0.95781   0.95792
 Alpha virt. eigenvalues --    0.96598   0.97866   0.98302   0.99079   1.01006
 Alpha virt. eigenvalues --    1.01527   1.02553   1.03926   1.05820   1.06425
 Alpha virt. eigenvalues --    1.09003   1.09726   1.14438   1.17564   1.19259
 Alpha virt. eigenvalues --    1.20555   1.22437   1.22940   1.24728   1.26081
 Alpha virt. eigenvalues --    1.31430   1.31638   1.32035   1.33865   1.33993
 Alpha virt. eigenvalues --    1.34243   1.34313   1.37965   1.38202   1.39485
 Alpha virt. eigenvalues --    1.41629   1.42297   1.43141   1.44106   1.45138
 Alpha virt. eigenvalues --    1.45420   1.45491   1.47080   1.47307   1.48032
 Alpha virt. eigenvalues --    1.48178   1.48344   1.48738   1.50341   1.52179
 Alpha virt. eigenvalues --    1.52968   1.53814   1.55002   1.55716   1.58392
 Alpha virt. eigenvalues --    1.59663   1.60419   1.60825   1.61213   1.62234
 Alpha virt. eigenvalues --    1.63283   1.64320   1.64395   1.64871   1.66367
 Alpha virt. eigenvalues --    1.69026   1.71045   1.73860   1.75476   1.77109
 Alpha virt. eigenvalues --    1.77356   1.77980   1.78639   1.79461   1.82121
 Alpha virt. eigenvalues --    1.82284   1.82545   1.84080   1.84523   1.85109
 Alpha virt. eigenvalues --    1.86354   1.86726   1.87694   1.88944   1.89893
 Alpha virt. eigenvalues --    1.91971   1.92096   1.92283   1.94749   1.95409
 Alpha virt. eigenvalues --    1.95575   1.97823   1.98075   1.98359   1.99135
 Alpha virt. eigenvalues --    2.00747   2.01003   2.02827   2.05442   2.09455
 Alpha virt. eigenvalues --    2.09726   2.11605   2.13333   2.15737   2.16593
 Alpha virt. eigenvalues --    2.18372   2.24486   2.24741   2.26055   2.26608
 Alpha virt. eigenvalues --    2.27149   2.30881   2.30903   2.31318   2.33849
 Alpha virt. eigenvalues --    2.34923   2.36724   2.37225   2.38768   2.39393
 Alpha virt. eigenvalues --    2.40244   2.41889   2.43266   2.43886   2.44324
 Alpha virt. eigenvalues --    2.47791   2.50598   2.51440   2.52563   2.52785
 Alpha virt. eigenvalues --    2.54649   2.56169   2.56590   2.57327   2.58527
 Alpha virt. eigenvalues --    2.61496   2.62832   2.63155   2.63963   2.64928
 Alpha virt. eigenvalues --    2.65123   2.66436   2.66677   2.67490   2.68501
 Alpha virt. eigenvalues --    2.69018   2.69595   2.71780   2.73681   2.75155
 Alpha virt. eigenvalues --    2.76258   2.77336   2.78935   2.79267   2.81144
 Alpha virt. eigenvalues --    2.81912   2.83458   2.84611   2.84782   2.85282
 Alpha virt. eigenvalues --    2.88147   2.95231   2.98422   2.99936   3.01463
 Alpha virt. eigenvalues --    3.02051   3.02174   3.02506   3.07975   3.09463
 Alpha virt. eigenvalues --    3.09847   3.16910   3.20765   3.21080   3.24411
 Alpha virt. eigenvalues --    3.30095   3.31815   3.34472   3.36505   3.38413
 Alpha virt. eigenvalues --    3.38938   3.43632   3.46328   3.46790   3.51961
 Alpha virt. eigenvalues --    3.53313   3.56318   3.59597   3.59926   3.60248
 Alpha virt. eigenvalues --    3.61774   3.64211   3.65353   3.67222   3.72351
 Alpha virt. eigenvalues --    3.73799   3.82013   3.83190   3.87200   3.89891
 Alpha virt. eigenvalues --    3.93420   3.96901   4.03703   4.06386   4.12514
 Alpha virt. eigenvalues --    4.17860   4.18930   4.53269   4.62698   4.64504
 Alpha virt. eigenvalues --    4.79568   4.81711   4.87602   4.94242   4.96135
 Alpha virt. eigenvalues --    5.31391   5.87594  23.41894  23.60145  23.76178
 Alpha virt. eigenvalues --   23.77224  23.90242  23.92093  23.92672  24.00211
 Alpha virt. eigenvalues --   24.05182  24.14301  24.14480  24.16320  24.20181
 Alpha virt. eigenvalues --   24.27225  24.28634  35.56409  35.60266  49.89174
          Condensed to atoms (all electrons):
               1          2          3          4          5          6
     1  C    8.222928   0.132058  -0.181184  -1.182024  -1.008102   1.006328
     2  C    0.132058   9.080577  -0.847793  -1.309566   0.790114  -1.403445
     3  C   -0.181184  -0.847793   7.272160   1.952404  -1.539001  -0.007924
     4  C   -1.182024  -1.309566   1.952404  10.922980  -1.216372  -1.023032
     5  C   -1.008102   0.790114  -1.539001  -1.216372  10.087634   0.557668
     6  C    1.006328  -1.403445  -0.007924  -1.023032   0.557668   7.817377
     7  O    0.045023   0.071141  -0.187240  -0.099801   0.134416   0.065394
     8  C   -0.937513  -0.384892   0.510162   2.177593  -2.668530  -1.387130
     9  C    0.317916   0.055540  -1.013786  -2.554041   0.260138  -0.002089
    10  C   -0.589517   0.212495  -0.497775  -0.793513   1.190385  -0.375703
    11  C   -0.076514   0.150313   0.483581   0.792753  -1.625886  -0.214535
    12  C   -0.062068   0.070029   0.039619  -0.270903  -0.306325  -0.104780
    13  C    0.061108   0.027081   0.046430  -0.528939   0.772131   0.207972
    14  C    0.061435   0.116574   0.092376  -0.674038  -0.159294   0.086893
    15  N   -0.119207   0.068220  -0.179345  -0.019264  -0.018571   0.070341
    16  C    0.012616  -0.011034  -0.118168  -0.083894   0.014033   0.012906
    17  N    0.000163  -0.000126  -0.000156   0.006019  -0.001533   0.000821
    18  C    0.000142  -0.000327  -0.000189  -0.009205   0.000439   0.001412
    19  H    0.432717  -0.103197  -0.014137  -0.018013   0.010496   0.026547
    20  H    0.027692  -0.145099   0.480520   0.081682  -0.050143   0.047314
    21  H   -0.095133   0.011627   0.009515   0.067369  -0.032448   0.326483
    22  H    0.056402  -0.001912   0.006830  -0.031574  -0.094133   0.094370
    23  H    0.002093  -0.011323   0.009888   0.007960  -0.026856  -0.000042
    24  H    0.000322  -0.000469   0.001953  -0.015692  -0.003838  -0.000383
    25  H    0.002754   0.000619   0.000130   0.028254   0.012859   0.004722
    26  H    0.036086  -0.075559  -0.011820  -0.005295   0.008024   0.022447
    27  H    0.008335   0.009627  -0.028105  -0.013272   0.001414  -0.001585
    28  H   -0.003543   0.008091   0.019998  -0.002118   0.003848   0.001625
    29  H    0.008382   0.009582  -0.028068  -0.013372   0.001422  -0.001573
    30  H   -0.000108   0.000425  -0.000930   0.000033   0.001400  -0.000242
    31  H   -0.000004   0.000028  -0.000085  -0.000438   0.000272   0.000041
    32  H    0.000013  -0.000005   0.000072   0.000377   0.000602   0.000074
    33  H   -0.000004   0.000028  -0.000085  -0.000428   0.000275   0.000042
               7          8          9         10         11         12
     1  C    0.045023  -0.937513   0.317916  -0.589517  -0.076514  -0.062068
     2  C    0.071141  -0.384892   0.055540   0.212495   0.150313   0.070029
     3  C   -0.187240   0.510162  -1.013786  -0.497775   0.483581   0.039619
     4  C   -0.099801   2.177593  -2.554041  -0.793513   0.792753  -0.270903
     5  C    0.134416  -2.668530   0.260138   1.190385  -1.625886  -0.306325
     6  C    0.065394  -1.387130  -0.002089  -0.375703  -0.214535  -0.104780
     7  O    8.366404  -0.149553   0.124600  -0.028922  -0.271532  -0.034010
     8  C   -0.149553  11.950839  -0.612340  -0.616294   1.948382  -0.889040
     9  C    0.124600  -0.612340  11.310984   1.474548  -2.127959   0.030015
    10  C   -0.028922  -0.616294   1.474548   6.779869  -0.652625   0.121598
    11  C   -0.271532   1.948382  -2.127959  -0.652625   8.202439   0.279497
    12  C   -0.034010  -0.889040   0.030015   0.121598   0.279497   9.155931
    13  C    0.076074  -1.515006  -1.532408  -0.135692  -0.801838  -0.024101
    14  C    0.026365  -0.886769  -0.253246  -0.635962   0.268084  -1.161699
    15  N   -0.004301   0.003743   0.000013  -0.009685  -0.003486  -0.000129
    16  C    0.004022  -0.017245  -0.000582   0.005484   0.003354  -0.000028
    17  N   -0.005444   0.008935  -0.002877  -0.002855  -0.107754   0.052676
    18  C   -0.000972  -0.020149  -0.056975   0.004200   0.078988  -0.106125
    19  H    0.001716  -0.014948   0.001055  -0.007676   0.002925  -0.001588
    20  H   -0.030281   0.016616  -0.053984  -0.016562   0.007702  -0.017409
    21  H   -0.001877   0.020442  -0.012800   0.040448  -0.002705   0.001903
    22  H    0.002584  -0.021346  -0.092745   0.290053   0.014909  -0.023850
    23  H   -0.033990   0.162419  -0.024799  -0.023548   0.464721  -0.236290
    24  H    0.002237  -0.004869   0.016668  -0.005766  -0.004968  -0.028948
    25  H   -0.002919   0.049813  -0.138872   0.024398   0.020590   0.043192
    26  H   -0.000375  -0.002938   0.000586  -0.002033  -0.000791   0.000139
    27  H   -0.000197   0.001841   0.000710   0.000915   0.000044   0.000203
    28  H    0.000373  -0.001180  -0.000046   0.000727   0.000240  -0.000012
    29  H   -0.000195   0.001874   0.000706   0.000920   0.000043   0.000205
    30  H    0.000831  -0.001597   0.030583   0.003557   0.015252  -0.091030
    31  H   -0.000114  -0.001730   0.000879   0.000662   0.012158  -0.016937
    32  H    0.000062   0.005997  -0.003409  -0.000040  -0.006349   0.008091
    33  H   -0.000114  -0.001691   0.000880   0.000669   0.012238  -0.016806
              13         14         15         16         17         18
     1  C    0.061108   0.061435  -0.119207   0.012616   0.000163   0.000142
     2  C    0.027081   0.116574   0.068220  -0.011034  -0.000126  -0.000327
     3  C    0.046430   0.092376  -0.179345  -0.118168  -0.000156  -0.000189
     4  C   -0.528939  -0.674038  -0.019264  -0.083894   0.006019  -0.009205
     5  C    0.772131  -0.159294  -0.018571   0.014033  -0.001533   0.000439
     6  C    0.207972   0.086893   0.070341   0.012906   0.000821   0.001412
     7  O    0.076074   0.026365  -0.004301   0.004022  -0.005444  -0.000972
     8  C   -1.515006  -0.886769   0.003743  -0.017245   0.008935  -0.020149
     9  C   -1.532408  -0.253246   0.000013  -0.000582  -0.002877  -0.056975
    10  C   -0.135692  -0.635962  -0.009685   0.005484  -0.002855   0.004200
    11  C   -0.801838   0.268084  -0.003486   0.003354  -0.107754   0.078988
    12  C   -0.024101  -1.161699  -0.000129  -0.000028   0.052676  -0.106125
    13  C    8.303305   0.640663   0.000248   0.000440  -0.146569  -0.028368
    14  C    0.640663   8.135637   0.001143   0.001413   0.046761  -0.049945
    15  N    0.000248   0.001143   6.898195   0.285313  -0.000001   0.000002
    16  C    0.000440   0.001413   0.285313   5.102843   0.000003  -0.000004
    17  N   -0.146569   0.046761  -0.000001   0.000003   6.880702   0.266532
    18  C   -0.028368  -0.049945   0.000002  -0.000004   0.266532   5.122844
    19  H    0.000343  -0.000735  -0.020078   0.005476   0.000001  -0.000007
    20  H   -0.002235  -0.009807  -0.040217  -0.008029   0.000002  -0.000058
    21  H    0.000226  -0.007944  -0.003983  -0.001503   0.000034   0.000028
    22  H    0.036910   0.077631  -0.000310   0.000351  -0.000999  -0.000927
    23  H   -0.028503   0.005825   0.000027  -0.000173  -0.006730   0.009431
    24  H    0.432412  -0.004129  -0.000002   0.000004  -0.044214  -0.002509
    25  H    0.000314   0.261419   0.000009  -0.000027   0.000465   0.005365
    26  H    0.000164   0.000568   0.373993  -0.035590   0.000000   0.000001
    27  H   -0.000012   0.000087  -0.038447   0.412127   0.000000   0.000001
    28  H    0.000013   0.000037  -0.040621   0.386093   0.000000   0.000000
    29  H   -0.000012   0.000088  -0.038459   0.412157   0.000000   0.000001
    30  H    0.017421  -0.001591  -0.000002   0.000008   0.376037  -0.036350
    31  H   -0.002300  -0.012112   0.000000   0.000000  -0.036012   0.408814
    32  H    0.028598  -0.002454   0.000000   0.000000  -0.040096   0.381490
    33  H   -0.002370  -0.012220   0.000000   0.000000  -0.035954   0.408639
              19         20         21         22         23         24
     1  C    0.432717   0.027692  -0.095133   0.056402   0.002093   0.000322
     2  C   -0.103197  -0.145099   0.011627  -0.001912  -0.011323  -0.000469
     3  C   -0.014137   0.480520   0.009515   0.006830   0.009888   0.001953
     4  C   -0.018013   0.081682   0.067369  -0.031574   0.007960  -0.015692
     5  C    0.010496  -0.050143  -0.032448  -0.094133  -0.026856  -0.003838
     6  C    0.026547   0.047314   0.326483   0.094370  -0.000042  -0.000383
     7  O    0.001716  -0.030281  -0.001877   0.002584  -0.033990   0.002237
     8  C   -0.014948   0.016616   0.020442  -0.021346   0.162419  -0.004869
     9  C    0.001055  -0.053984  -0.012800  -0.092745  -0.024799   0.016668
    10  C   -0.007676  -0.016562   0.040448   0.290053  -0.023548  -0.005766
    11  C    0.002925   0.007702  -0.002705   0.014909   0.464721  -0.004968
    12  C   -0.001588  -0.017409   0.001903  -0.023850  -0.236290  -0.028948
    13  C    0.000343  -0.002235   0.000226   0.036910  -0.028503   0.432412
    14  C   -0.000735  -0.009807  -0.007944   0.077631   0.005825  -0.004129
    15  N   -0.020078  -0.040217  -0.003983  -0.000310   0.000027  -0.000002
    16  C    0.005476  -0.008029  -0.001503   0.000351  -0.000173   0.000004
    17  N    0.000001   0.000002   0.000034  -0.000999  -0.006730  -0.044214
    18  C   -0.000007  -0.000058   0.000028  -0.000927   0.009431  -0.002509
    19  H    0.543839   0.001529  -0.020957   0.002408   0.000031   0.000037
    20  H    0.001529   0.511154   0.001539   0.000614  -0.000562   0.000050
    21  H   -0.020957   0.001539   0.518085  -0.002135  -0.000099  -0.000210
    22  H    0.002408   0.000614  -0.002135   0.542067   0.000185   0.003942
    23  H    0.000031  -0.000562  -0.000099   0.000185   0.545883  -0.000683
    24  H    0.000037   0.000050  -0.000210   0.003942  -0.000683   0.512721
    25  H   -0.000090  -0.000172   0.000292  -0.007350   0.002897  -0.021257
    26  H    0.002652  -0.000365   0.000729  -0.000172  -0.000039  -0.000004
    27  H    0.000180  -0.007809  -0.000156  -0.000001   0.000027  -0.000001
    28  H    0.001200   0.001123  -0.000148   0.000043  -0.000019   0.000000
    29  H    0.000182  -0.007805  -0.000156  -0.000001   0.000028  -0.000001
    30  H    0.000000  -0.000008  -0.000003   0.000039  -0.001925   0.000913
    31  H   -0.000001  -0.000013   0.000003  -0.000123   0.000219  -0.007073
    32  H    0.000000   0.000003   0.000001  -0.000029   0.001337   0.003028
    33  H   -0.000001  -0.000013   0.000003  -0.000124   0.000226  -0.007052
              25         26         27         28         29         30
     1  C    0.002754   0.036086   0.008335  -0.003543   0.008382  -0.000108
     2  C    0.000619  -0.075559   0.009627   0.008091   0.009582   0.000425
     3  C    0.000130  -0.011820  -0.028105   0.019998  -0.028068  -0.000930
     4  C    0.028254  -0.005295  -0.013272  -0.002118  -0.013372   0.000033
     5  C    0.012859   0.008024   0.001414   0.003848   0.001422   0.001400
     6  C    0.004722   0.022447  -0.001585   0.001625  -0.001573  -0.000242
     7  O   -0.002919  -0.000375  -0.000197   0.000373  -0.000195   0.000831
     8  C    0.049813  -0.002938   0.001841  -0.001180   0.001874  -0.001597
     9  C   -0.138872   0.000586   0.000710  -0.000046   0.000706   0.030583
    10  C    0.024398  -0.002033   0.000915   0.000727   0.000920   0.003557
    11  C    0.020590  -0.000791   0.000044   0.000240   0.000043   0.015252
    12  C    0.043192   0.000139   0.000203  -0.000012   0.000205  -0.091030
    13  C    0.000314   0.000164  -0.000012   0.000013  -0.000012   0.017421
    14  C    0.261419   0.000568   0.000087   0.000037   0.000088  -0.001591
    15  N    0.000009   0.373993  -0.038447  -0.040621  -0.038459  -0.000002
    16  C   -0.000027  -0.035590   0.412127   0.386093   0.412157   0.000008
    17  N    0.000465   0.000000   0.000000   0.000000   0.000000   0.376037
    18  C    0.005365   0.000001   0.000001   0.000000   0.000001  -0.036350
    19  H   -0.000090   0.002652   0.000180   0.001200   0.000182   0.000000
    20  H   -0.000172  -0.000365  -0.007809   0.001123  -0.007805  -0.000008
    21  H    0.000292   0.000729  -0.000156  -0.000148  -0.000156  -0.000003
    22  H   -0.007350  -0.000172  -0.000001   0.000043  -0.000001   0.000039
    23  H    0.002897  -0.000039   0.000027  -0.000019   0.000028  -0.001925
    24  H   -0.021257  -0.000004  -0.000001   0.000000  -0.000001   0.000913
    25  H    0.525294   0.000001   0.000005  -0.000003   0.000005  -0.000764
    26  H    0.000001   0.382437   0.001364  -0.006735   0.001363   0.000000
    27  H    0.000005   0.001364   0.522015  -0.019147  -0.041855   0.000000
    28  H   -0.000003  -0.006735  -0.019147   0.484124  -0.019180   0.000001
    29  H    0.000005   0.001363  -0.041855  -0.019180   0.521992   0.000000
    30  H   -0.000764   0.000000   0.000000   0.000001   0.000000   0.378734
    31  H    0.000624   0.000000   0.000000   0.000000   0.000000   0.001619
    32  H    0.000164   0.000000   0.000000   0.000000   0.000000  -0.005366
    33  H    0.000626   0.000000   0.000000   0.000000   0.000000   0.001604
              31         32         33
     1  C   -0.000004   0.000013  -0.000004
     2  C    0.000028  -0.000005   0.000028
     3  C   -0.000085   0.000072  -0.000085
     4  C   -0.000438   0.000377  -0.000428
     5  C    0.000272   0.000602   0.000275
     6  C    0.000041   0.000074   0.000042
     7  O   -0.000114   0.000062  -0.000114
     8  C   -0.001730   0.005997  -0.001691
     9  C    0.000879  -0.003409   0.000880
    10  C    0.000662  -0.000040   0.000669
    11  C    0.012158  -0.006349   0.012238
    12  C   -0.016937   0.008091  -0.016806
    13  C   -0.002300   0.028598  -0.002370
    14  C   -0.012112  -0.002454  -0.012220
    15  N    0.000000   0.000000   0.000000
    16  C    0.000000   0.000000   0.000000
    17  N   -0.036012  -0.040096  -0.035954
    18  C    0.408814   0.381490   0.408639
    19  H   -0.000001   0.000000  -0.000001
    20  H   -0.000013   0.000003  -0.000013
    21  H    0.000003   0.000001   0.000003
    22  H   -0.000123  -0.000029  -0.000124
    23  H    0.000219   0.001337   0.000226
    24  H   -0.007073   0.003028  -0.007052
    25  H    0.000624   0.000164   0.000626
    26  H    0.000000   0.000000   0.000000
    27  H    0.000000   0.000000   0.000000
    28  H    0.000000   0.000000   0.000000
    29  H    0.000000   0.000000   0.000000
    30  H    0.001619  -0.005366   0.001604
    31  H    0.524894  -0.019367  -0.043531
    32  H   -0.019367   0.479176  -0.019391
    33  H   -0.043531  -0.019391   0.525070
 Mulliken charges:
               1
     1  C   -0.179591
     2  C   -0.519421
     3  C   -0.269847
     4  C   -0.172633
     5  C    0.903464
     6  C    0.171685
     7  O   -0.069403
     8  C   -0.723895
     9  C    0.857137
    10  C    0.243241
    11  C   -0.861270
    12  C   -0.411018
    13  C    0.096501
    14  C    0.048949
    15  N   -0.165138
    16  C   -0.382368
    17  N   -0.207827
    18  C   -0.376218
    19  H    0.168093
    20  H    0.213029
    21  H    0.183528
    22  H    0.148394
    23  H    0.182387
    24  H    0.177782
    25  H    0.186646
    26  H    0.311161
    27  H    0.191693
    28  H    0.185216
    29  H    0.191730
    30  H    0.311460
    31  H    0.189629
    32  H    0.187421
    33  H    0.189485
 Sum of Mulliken charges =   1.00000
 Mulliken charges with hydrogens summed into heavy atoms:
               1
     1  C   -0.011499
     2  C   -0.519421
     3  C   -0.056818
     4  C   -0.172633
     5  C    0.903464
     6  C    0.355213
     7  O   -0.069403
     8  C   -0.723895
     9  C    0.857137
    10  C    0.391635
    11  C   -0.678883
    12  C   -0.411018
    13  C    0.274283
    14  C    0.235594
    15  N    0.146023
    16  C    0.186271
    17  N    0.103632
    18  C    0.190317
 Electronic spatial extent (au):  <R**2>=           6043.0012
 Charge=              1.0000 electrons
 Dipole moment (field-independent basis, Debye):
    X=             -0.4872    Y=             -0.2811    Z=              0.0059  Tot=              0.5625
 Quadrupole moment (field-independent basis, Debye-Ang):
   XX=              1.1148   YY=            -79.6989   ZZ=           -107.2810
   XY=             -2.6950   XZ=             -0.0052   YZ=              0.0039
 Traceless Quadrupole moment (field-independent basis, Debye-Ang):
   XX=             63.0698   YY=            -17.7439   ZZ=            -45.3259
   XY=             -2.6950   XZ=             -0.0052   YZ=              0.0039
 Octapole moment (field-independent basis, Debye-Ang**2):
  XXX=            -11.0519  YYY=             -5.0503  ZZZ=              0.0022  XYY=             -0.6419
  XXY=            -79.3991  XXZ=              0.2272  XZZ=              0.3002  YZZ=             -6.1912
  YYZ=              0.0135  XYZ=              0.0041
 Hexadecapole moment (field-independent basis, Debye-Ang**3):
 XXXX=          -3652.7405 YYYY=           -901.0041 ZZZZ=           -128.2658 XXXY=            -81.2027
 XXXZ=             -0.1564 YYYX=            -33.3968 YYYZ=              0.0560 ZZZX=              0.0504
 ZZZY=              0.0026 XXYY=          -1006.8990 XXZZ=          -1226.2136 YYZZ=           -211.3428
 XXYZ=              0.0143 YYXZ=             -0.0668 ZZXY=             11.8773
 N-N= 1.243377979047D+03 E-N=-4.250755609221D+03  KE= 7.640149014167D+02

 **********************************************************************

            Electrostatic Properties Using The SCF Density

 **********************************************************************

       Atomic Center    1 is at  -3.513240  1.298459  0.000957
       Atomic Center    2 is at  -3.613535 -0.041106  0.000633
       Atomic Center    3 is at  -2.479221 -0.762199 -0.000649
       Atomic Center    4 is at  -1.258064 -0.194235 -0.001479
       Atomic Center    5 is at  -1.183613  1.151062 -0.000885
       Atomic Center    6 is at  -2.308501  1.887688  0.000112
       Atomic Center    7 is at  -0.141647 -0.982870 -0.002665
       Atomic Center    8 is at   1.063307 -0.337721 -0.001640
       Atomic Center    9 is at   1.157677  1.005189 -0.000867
       Atomic Center   10 is at   0.028041  1.733760 -0.000938
       Atomic Center   11 is at   2.205249 -1.051541 -0.001349
       Atomic Center   12 is at   3.430141 -0.491501 -0.000078
       Atomic Center   13 is at   3.488750  0.852074  0.000790
       Atomic Center   14 is at   2.368050  1.589589  0.000267
       Atomic Center   15 is at  -4.782533 -0.543048  0.001561
       Atomic Center   16 is at  -5.119971 -1.980562  0.001273
       Atomic Center   17 is at   4.501483 -1.246291  0.000400
       Atomic Center   18 is at   5.926283 -0.730526  0.002346
       Atomic Center   19 is at  -4.415674  1.934196  0.002026
       Atomic Center   20 is at  -2.517087 -1.863932 -0.000930
       Atomic Center   21 is at  -2.262855  2.990397  0.000559
       Atomic Center   22 is at   0.097542  2.835477 -0.000312
       Atomic Center   23 is at   2.104077 -2.151085 -0.002031
       Atomic Center   24 is at   4.452439  1.386413  0.001987
       Atomic Center   25 is at   2.461905  2.689370  0.001072
       Atomic Center   26 is at  -5.574480  0.147477  0.002588
       Atomic Center   27 is at  -4.725769 -2.481501  0.914191
       Atomic Center   28 is at  -6.227765 -2.090845  0.002152
       Atomic Center   29 is at  -4.727346 -2.480623 -0.912816
       Atomic Center   30 is at   4.391122 -2.270079 -0.000441
       Atomic Center   31 is at   6.123960 -0.124882  0.915782
       Atomic Center   32 is at   6.646660 -1.580329  0.001811
       Atomic Center   33 is at   6.125665 -0.122314 -0.909007
 -----------------------------------------------------------------

              Electrostatic Properties (Atomic Units)

 -----------------------------------------------------------------
    Center     Electric         -------- Electric Field --------
               Potential          X             Y             Z
 -----------------------------------------------------------------
    1 Atom    -14.660438     -0.004344      0.017133      0.000009
    2 Atom    -14.611490      0.009929      0.003286     -0.000010
    3 Atom    -14.661140      0.005332     -0.018130     -0.000009
    4 Atom    -14.575286     -0.010278     -0.002183      0.000011
    5 Atom    -14.653939      0.004718      0.005792     -0.000007
    6 Atom    -14.648587     -0.009087      0.012780      0.000010
    7 Atom    -22.165498     -0.003173     -0.047740     -0.000062
    8 Atom    -14.578463      0.010683     -0.003893      0.000008
    9 Atom    -14.655055     -0.003096      0.006436     -0.000003
   10 Atom    -14.626103      0.000538      0.012883      0.000005
   11 Atom    -14.661322     -0.007084     -0.016216     -0.000013
   12 Atom    -14.607853     -0.002780      0.001062     -0.000002
   13 Atom    -14.662204      0.009452      0.015168      0.000017
   14 Atom    -14.648455      0.009307      0.011320      0.000011
   15 Atom    -18.233219     -0.022623     -0.008892      0.000019
   16 Atom    -14.612697     -0.003064     -0.009444     -0.000004
   17 Atom    -18.237309      0.015885     -0.007615      0.000005
   18 Atom    -14.613498      0.006776      0.002451      0.000012
   19 Atom     -0.974268     -0.005978      0.002278      0.000002
   20 Atom     -0.975159     -0.000912     -0.006596     -0.000004
   21 Atom     -0.973477      0.003568      0.005392     -0.000004
   22 Atom     -0.958245      0.000339      0.007040     -0.000006
   23 Atom     -0.974774      0.000345     -0.007387     -0.000003
   24 Atom     -0.981917      0.006048      0.000843      0.000003
   25 Atom     -0.974067     -0.002346      0.005591     -0.000004
   26 Atom     -0.885890      0.005598     -0.012709     -0.000011
   27 Atom     -0.988312      0.002504     -0.002600      0.003085
   28 Atom     -0.983073     -0.001585      0.000971      0.000004
   29 Atom     -0.988316      0.002496     -0.002604     -0.003085
   30 Atom     -0.895760     -0.000709     -0.003205      0.000000
   31 Atom     -0.992312     -0.000268      0.002776      0.002841
   32 Atom     -0.984942     -0.003678     -0.004136     -0.000010
   33 Atom     -0.992295     -0.000272      0.002775     -0.002836
 -----------------------------------------------------------------
 -----------------------------------------------------
    Center         ---- Electric Field Gradient ----
                     XX            YY            ZZ
 -----------------------------------------------------
    1 Atom     -500.846092   -500.872103   -501.213169
    2 Atom     -501.054310   -500.870475   -501.579675
    3 Atom     -500.630814   -500.671636   -500.824055
    4 Atom     -501.031980   -500.786945   -501.229458
    5 Atom     -500.776894   -500.839148   -501.176479
    6 Atom     -500.873996   -500.998480   -501.502451
    7 Atom    -1238.374123  -1236.204453  -1235.589881
    8 Atom     -501.099255   -500.684336   -501.176857
    9 Atom     -500.784981   -500.847336   -501.191517
   10 Atom     -501.107315   -501.273658   -501.995502
   11 Atom     -500.679167   -500.757311   -500.905007
   12 Atom     -500.951798   -500.813021   -501.470509
   13 Atom     -500.777974   -500.790064   -501.151339
   14 Atom     -500.894023   -501.000484   -501.523851
   15 Atom     -812.227746   -812.342936   -810.951355
   16 Atom     -500.076255   -500.558870   -500.067807
   17 Atom     -812.280771   -812.196094   -810.791315
   18 Atom     -500.591801   -500.120368   -500.078142
   19 Atom       -1.941973     -1.797769     -1.633582
   20 Atom       -1.657894     -2.060569     -1.621708
   21 Atom       -1.662229     -2.064079     -1.636997
   22 Atom       -1.665886     -2.062923     -1.645936
   23 Atom       -1.661210     -2.057087     -1.622029
   24 Atom       -1.982448     -1.762821     -1.638896
   25 Atom       -1.664231     -2.062829     -1.637737
   26 Atom       -1.818728     -1.750635     -1.502525
   27 Atom       -1.702495     -1.740496     -1.916074
   28 Atom       -2.034543     -1.661815     -1.634915
   29 Atom       -1.702068     -1.740217     -1.916743
   30 Atom       -1.607162     -2.083482     -1.524161
   31 Atom       -1.675487     -1.768061     -1.916824
   32 Atom       -1.805773     -1.878997     -1.629830
   33 Atom       -1.675673     -1.769069     -1.915610
 -----------------------------------------------------
 -----------------------------------------------------
    Center         ---- Electric Field Gradient ----
                     XY            XZ            YZ
 -----------------------------------------------------
    1 Atom        0.080083     -0.000285      0.000052
    2 Atom       -0.092888     -0.000524      0.000326
    3 Atom       -0.005002     -0.000088      0.000090
    4 Atom        0.354881      0.000077     -0.000057
    5 Atom       -0.007625     -0.000137      0.000192
    6 Atom        0.030280     -0.000518      0.000160
    7 Atom        0.139934      0.000069     -0.001796
    8 Atom       -0.313913     -0.000228      0.000121
    9 Atom        0.002125      0.000167      0.000231
   10 Atom       -0.011115      0.000066      0.000265
   11 Atom       -0.004214      0.000127      0.000111
   12 Atom        0.141378      0.000539      0.000520
   13 Atom       -0.051788      0.000289      0.000186
   14 Atom       -0.042422      0.000494      0.000265
   15 Atom        0.030479      0.001217     -0.000600
   16 Atom       -0.132000     -0.000057     -0.000107
   17 Atom       -0.034896     -0.001606     -0.001095
   18 Atom       -0.183235     -0.000721     -0.000228
   19 Atom        0.186573      0.000354     -0.000230
   20 Atom       -0.017318      0.000029     -0.000110
   21 Atom       -0.020350      0.000005     -0.000169
   22 Atom       -0.025009     -0.000015     -0.000228
   23 Atom       -0.031472     -0.000045     -0.000262
   24 Atom       -0.170859     -0.000412     -0.000229
   25 Atom       -0.030850     -0.000038     -0.000303
   26 Atom        0.204095      0.000381     -0.000292
   27 Atom        0.057966     -0.120635      0.143032
   28 Atom       -0.034704      0.000321      0.000018
   29 Atom        0.057600      0.120312     -0.142956
   30 Atom       -0.050764     -0.000119     -0.000448
   31 Atom       -0.038715     -0.051610     -0.179620
   32 Atom        0.185916      0.000102     -0.000176
   33 Atom       -0.039189      0.051946      0.179969
 -----------------------------------------------------
 -----------------------------------------------------
    Center         ---- Electric Field Gradient ----
                   ----       Eigenvalues       ----
 -----------------------------------------------------
    1 Atom     -501.213170   -500.940230   -500.777965
    2 Atom     -501.579675   -501.093071   -500.831714
    3 Atom     -500.824055   -500.672240   -500.630210
    4 Atom     -501.284897   -501.229458   -500.534029
    5 Atom     -501.176479   -500.840068   -500.775974
    6 Atom     -501.502451   -501.005455   -500.867021
    7 Atom    -1238.383111  -1236.195471  -1235.589876
    8 Atom     -501.268068   -501.176857   -500.515523
    9 Atom     -501.191517   -500.847408   -500.784909
   10 Atom     -501.995502   -501.274397   -501.106575
   11 Atom     -500.905007   -500.757538   -500.678940
   12 Atom     -501.470510   -501.039897   -500.724920
   13 Atom     -501.151339   -500.836158   -500.731880
   14 Atom     -501.523852   -501.015321   -500.879186
   15 Atom     -812.350504   -812.220179   -810.951354
   16 Atom     -500.592614   -500.067807   -500.042511
   17 Atom     -812.293300   -812.183566   -810.791313
   18 Atom     -500.654644   -500.078141   -500.057526
   19 Atom       -2.069892     -1.669851     -1.633582
   20 Atom       -2.061312     -1.657150     -1.621708
   21 Atom       -2.065107     -1.661201     -1.636997
   22 Atom       -2.064492     -1.664317     -1.645936
   23 Atom       -2.059573     -1.658724     -1.622028
   24 Atom       -2.075740     -1.669529     -1.638895
   25 Atom       -2.065203     -1.661858     -1.637737
   26 Atom       -1.991598     -1.577767     -1.502524
   27 Atom       -2.047810     -1.664758     -1.646496
   28 Atom       -2.037747     -1.658612     -1.634915
   29 Atom       -2.047781     -1.664755     -1.646492
   30 Atom       -2.088833     -1.601812     -1.524160
   31 Atom       -2.047997     -1.665050     -1.647325
   32 Atom       -2.031872     -1.652898     -1.629830
   33 Atom       -2.047992     -1.665044     -1.647316
 -----------------------------------------------------
 -----------------------------------------------------
    Center         ---- Electric Field Gradient ----
                       ( tensor representation )
                   3XX-RR        3YY-RR        3ZZ-RR
 -----------------------------------------------------
    1 Atom        0.131029      0.105019     -0.236048
    2 Atom        0.113843      0.297678     -0.411521
    3 Atom        0.078021      0.037199     -0.115220
    4 Atom       -0.015852      0.229182     -0.213330
    5 Atom        0.153946      0.091693     -0.245638
    6 Atom        0.250979      0.126496     -0.377475
    7 Atom       -1.651304      0.518366      1.132938
    8 Atom       -0.112439      0.302480     -0.190041
    9 Atom        0.156297      0.093942     -0.250239
   10 Atom        0.351510      0.185167     -0.536677
   11 Atom        0.101328      0.023184     -0.124512
   12 Atom        0.126645      0.265422     -0.392066
   13 Atom        0.128485      0.116395     -0.244880
   14 Atom        0.245430      0.138969     -0.384399
   15 Atom       -0.387067     -0.502257      0.889324
   16 Atom        0.158056     -0.324559      0.166504
   17 Atom       -0.524711     -0.440034      0.964745
   18 Atom       -0.328364      0.143069      0.185295
   19 Atom       -0.150865     -0.006661      0.157526
   20 Atom        0.122163     -0.280512      0.158349
   21 Atom        0.125539     -0.276311      0.150772
   22 Atom        0.125695     -0.271341      0.145646
   23 Atom        0.118898     -0.276978      0.158080
   24 Atom       -0.187726      0.031900      0.155826
   25 Atom        0.124035     -0.274563      0.150529
   26 Atom       -0.128099     -0.060006      0.188105
   27 Atom        0.083860      0.045859     -0.129719
   28 Atom       -0.257452      0.115276      0.142176
   29 Atom        0.084274      0.046126     -0.130400
   30 Atom        0.131106     -0.345214      0.214108
   31 Atom        0.111304      0.018729     -0.130033
   32 Atom       -0.034240     -0.107464      0.141703
   33 Atom        0.111111      0.017715     -0.128826
 -----------------------------------------------------
 -----------------------------------------------------
    Center         ---- Electric Field Gradient ----
                       ( tensor representation )
                   ----       Eigenvalues       ----
 -----------------------------------------------------
    1 Atom       -0.236048      0.036892      0.199156
    2 Atom       -0.411522      0.075082      0.336440
    3 Atom       -0.115220      0.036595      0.078625
    4 Atom       -0.268769     -0.213330      0.482099
    5 Atom       -0.245639      0.090772      0.154866
    6 Atom       -0.377476      0.119521      0.257955
    7 Atom       -1.660292      0.527348      1.132943
    8 Atom       -0.281252     -0.190041      0.471293
    9 Atom       -0.250239      0.093870      0.156369
   10 Atom       -0.536677      0.184428      0.352250
   11 Atom       -0.124512      0.022957      0.101555
   12 Atom       -0.392067      0.038545      0.353522
   13 Atom       -0.244880      0.070301      0.174579
   14 Atom       -0.384399      0.124132      0.260267
   15 Atom       -0.509825     -0.379500      0.889325
   16 Atom       -0.358303      0.166504      0.191800
   17 Atom       -0.537241     -0.427507      0.964747
   18 Atom       -0.391207      0.185296      0.205911
   19 Atom       -0.278784      0.121257      0.157526
   20 Atom       -0.281255      0.122906      0.158349
   21 Atom       -0.277339      0.126567      0.150772
   22 Atom       -0.272910      0.127264      0.145646
   23 Atom       -0.279465      0.121385      0.158080
   24 Atom       -0.281019      0.125193      0.155826
   25 Atom       -0.276937      0.126408      0.150529
   26 Atom       -0.300968      0.112863      0.188105
   27 Atom       -0.261455      0.121597      0.139859
[...]
    17  N   -0.168019
    18  C   -0.359785
    19  H    0.177553
    20  H    0.215025
    21  H    0.180710
    22  H    0.162354
    23  H    0.177922
    24  H    0.193785
    25  H    0.188841
    26  H    0.320898
    27  H    0.188633
    28  H    0.182254
    29  H    0.188627
    30  H    0.319443
    31  H    0.185742
    32  H    0.174821
    33  H    0.185732
 Sum of Mulliken charges =   1.00000
 Mulliken charges with hydrogens summed into heavy atoms:
               1
     1  C   -0.037688
     2  C   -0.603485
     3  C   -0.069123
     4  C   -0.243231
     5  C    0.758581
     6  C    0.197106
     7  O    0.007664
     8  C   -0.870231
     9  C    0.944619
    10  C    0.461425
    11  C   -0.497165
    12  C   -0.720164
    13  C    0.623884
    14  C    0.375601
    15  N    0.154032
    16  C    0.180240
    17  N    0.151424
    18  C    0.186511
 Electronic spatial extent (au):  <R**2>=           6289.6350
 Charge=              1.0000 electrons
 Dipole moment (field-independent basis, Debye):
    X=             -0.2271    Y=             -0.6641    Z=              0.0003  Tot=              0.7018
 Quadrupole moment (field-independent basis, Debye-Ang):
   XX=              1.7136   YY=            -76.9468   ZZ=           -109.1849
   XY=             -2.6529   XZ=              0.0001   YZ=             -0.0001
 Traceless Quadrupole moment (field-independent basis, Debye-Ang):
   XX=             63.1863   YY=            -15.4741   ZZ=            -47.7122
   XY=             -2.6529   XZ=              0.0001   YZ=             -0.0001
 Octapole moment (field-independent basis, Debye-Ang**2):
  XXX=            -13.4445  YYY=             -6.7346  ZZZ=              0.0001  XYY=              0.0141
  XXY=            -89.9872  XXZ=              0.0114  XZZ=              1.3381  YZZ=             -7.5382
  YYZ=              0.0008  XYZ=             -0.0005
 Hexadecapole moment (field-independent basis, Debye-Ang**3):
 XXXX=          -3803.1912 YYYY=           -995.1014 ZZZZ=           -132.2169 XXXY=            -72.1289
 XXXZ=             -0.0068 YYYX=            -31.7366 YYYZ=              0.0012 ZZZX=              0.0019
 ZZZY=             -0.0003 XXYY=          -1021.3506 XXZZ=          -1274.7899 YYZZ=           -237.2670
 XXYZ=             -0.0034 YYXZ=              0.0000 ZZXY=             10.4278
 N-N= 1.211095620819D+03 E-N=-4.184748996416D+03  KE= 7.620576100191D+02

 **********************************************************************

            Electrostatic Properties Using The SCF Density

 **********************************************************************

       Atomic Center    1 is at  -3.647553  1.342504  0.000034
       Atomic Center    2 is at  -3.688852 -0.091805  0.000025
       Atomic Center    3 is at  -2.477511 -0.815205 -0.000028
       Atomic Center    4 is at  -1.284353 -0.124152 -0.000059
       Atomic Center    5 is at  -1.220030  1.299884 -0.000042
       Atomic Center    6 is at  -2.458835  2.006389  0.000004
       Atomic Center    7 is at  -0.141907 -0.860930 -0.000129
       Atomic Center    8 is at   1.087645 -0.274382 -0.000062
       Atomic Center    9 is at   1.202227  1.147684 -0.000029
       Atomic Center   10 is at   0.033725  1.910349 -0.000024
       Atomic Center   11 is at   2.184292 -1.102201 -0.000051
       Atomic Center   12 is at   3.481355 -0.539129 -0.000002
       Atomic Center   13 is at   3.620513  0.886167  0.000042
       Atomic Center   14 is at   2.516623  1.690980  0.000027
       Atomic Center   15 is at  -4.885886 -0.711193  0.000071
       Atomic Center   16 is at  -5.087584 -2.153597  0.000051
       Atomic Center   17 is at   4.564521 -1.343210 -0.000006
       Atomic Center   18 is at   5.953380 -0.898629  0.000093
       Atomic Center   19 is at  -4.581355  1.893220  0.000066
       Atomic Center   20 is at  -2.459582 -1.895727 -0.000039
       Atomic Center   21 is at  -2.439926  3.090157  0.000008
       Atomic Center   22 is at   0.101895  2.993789 -0.000013
       Atomic Center   23 is at   2.042625 -2.176152 -0.000080
       Atomic Center   24 is at   4.607180  1.327955  0.000093
       Atomic Center   25 is at   2.633140  2.768778  0.000059
       Atomic Center   26 is at  -5.707960 -0.127629  0.000130
       Atomic Center   27 is at  -4.651831 -2.614232  0.891278
       Atomic Center   28 is at  -6.157677 -2.352150  0.000044
       Atomic Center   29 is at  -4.651829 -2.614201 -0.891190
       Atomic Center   30 is at   4.400901 -2.338110  0.000015
       Atomic Center   31 is at   6.182883 -0.308789  0.891637
       Atomic Center   32 is at   6.593148 -1.779157  0.000033
       Atomic Center   33 is at   6.182948 -0.308633 -0.891330
 -----------------------------------------------------------------

              Electrostatic Properties (Atomic Units)

 -----------------------------------------------------------------
    Center     Electric         -------- Electric Field --------
               Potential          X             Y             Z
 -----------------------------------------------------------------
    1 Atom    -14.642377     -0.001257      0.001500      0.000000
    2 Atom    -14.581716      0.007190      0.004570      0.000000
    3 Atom    -14.646326     -0.001036     -0.003434      0.000000
    4 Atom    -14.559657     -0.012918      0.008326      0.000001
    5 Atom    -14.625567     -0.001454      0.002369      0.000000
    6 Atom    -14.633832     -0.000086      0.001719      0.000000
    7 Atom    -22.164642     -0.002910     -0.047051     -0.000004
    8 Atom    -14.561709      0.013660      0.006599      0.000001
    9 Atom    -14.625951      0.001751      0.002082      0.000000
   10 Atom    -14.610854      0.000137      0.001828      0.000000
   11 Atom    -14.645631      0.000979     -0.003223      0.000000
   12 Atom    -14.581732     -0.006321      0.005713      0.000000
   13 Atom    -14.643808      0.001587      0.001604      0.000000
   14 Atom    -14.632784      0.000400      0.001501      0.000000
   15 Atom    -18.232441     -0.003448     -0.003497      0.000000
   16 Atom    -14.622865     -0.001258     -0.009008      0.000000
   17 Atom    -18.233804      0.004676     -0.001483     -0.000003
   18 Atom    -14.623883      0.008730      0.002851      0.000001
   19 Atom     -0.974401     -0.016386      0.010028      0.000001
   20 Atom     -0.970132      0.000431     -0.019708      0.000000
   21 Atom     -0.973621      0.000199      0.019344      0.000000
   22 Atom     -0.956045      0.001205      0.019268      0.000001
   23 Atom     -0.967808     -0.002717     -0.019205     -0.000001
   24 Atom     -0.977543      0.017725      0.008257      0.000001
   25 Atom     -0.973637      0.002212      0.019210      0.000001
   26 Atom     -0.894994     -0.018949      0.013272      0.000001
   27 Atom     -0.994737      0.007079     -0.007934      0.015079
   28 Atom     -0.988271     -0.018240     -0.003655      0.000000
   29 Atom     -0.994736      0.007078     -0.007933     -0.015080
   30 Atom     -0.896522     -0.003643     -0.022756      0.000000
   31 Atom     -0.996398      0.004195      0.009785      0.015105
   32 Atom     -0.989424      0.011160     -0.014862     -0.000001
   33 Atom     -0.996397      0.004196      0.009788     -0.015104
 -----------------------------------------------------------------
 -----------------------------------------------------
    Center         ---- Electric Field Gradient ----
                     XX            YY            ZZ
 -----------------------------------------------------
    1 Atom     -500.636774   -500.765453   -501.024069
    2 Atom     -500.829848   -500.685864   -501.300954
    3 Atom     -500.560472   -500.515095   -500.687099
    4 Atom     -501.019672   -500.759564   -501.176390
    5 Atom     -500.536644   -500.619527   -500.846890
    6 Atom     -500.811485   -500.818134   -501.345900
    7 Atom    -1238.192351  -1235.815451  -1235.520404
    8 Atom     -501.082260   -500.668173   -501.130104
    9 Atom     -500.538308   -500.621498   -500.851310
   10 Atom     -500.940949   -500.978671   -501.684387
   11 Atom     -500.579704   -500.557836   -500.712341
   12 Atom     -500.795711   -500.711170   -501.296919
   13 Atom     -500.601366   -500.719664   -500.988957
   14 Atom     -500.838764   -500.820382   -501.381370
   15 Atom     -812.166130   -812.190228   -810.799105
   16 Atom     -500.058459   -500.578292   -500.068906
   17 Atom     -812.218543   -812.122858   -810.767593
   18 Atom     -500.555081   -500.086061   -500.065782
   19 Atom       -2.025163     -1.799043     -1.651690
   20 Atom       -1.672033     -2.133775     -1.636640
   21 Atom       -1.680651     -2.137255     -1.657604
   22 Atom       -1.676348     -2.124353     -1.657843
   23 Atom       -1.677070     -2.119415     -1.633667
   24 Atom       -2.073982     -1.763783     -1.656905
   25 Atom       -1.686276     -2.133146     -1.659045
   26 Atom       -2.014788     -1.828333     -1.556364
   27 Atom       -1.753935     -1.771788     -1.976826
   28 Atom       -2.121575     -1.710458     -1.670190
   29 Atom       -1.753937     -1.771778     -1.976836
   30 Atom       -1.656868     -2.190475     -1.558521
   31 Atom       -1.716145     -1.812511     -1.979393
   32 Atom       -1.846910     -1.986487     -1.670732
   33 Atom       -1.716157     -1.812584     -1.979314
 -----------------------------------------------------
 -----------------------------------------------------
    Center         ---- Electric Field Gradient ----
                     XY            XZ            YZ
 -----------------------------------------------------
    1 Atom        0.033884     -0.000013      0.000001
    2 Atom       -0.113530     -0.000022      0.000010
    3 Atom        0.005957     -0.000005      0.000003
    4 Atom        0.322523      0.000009     -0.000002
    5 Atom       -0.001573     -0.000005      0.000007
    6 Atom        0.059017     -0.000015      0.000003
    7 Atom        0.153533     -0.000003     -0.000111
    8 Atom       -0.282897     -0.000014      0.000005
    9 Atom       -0.006500      0.000008      0.000008
   10 Atom       -0.001869      0.000005      0.000010
   11 Atom       -0.011340      0.000001      0.000004
   12 Atom        0.127515      0.000024      0.000015
   13 Atom       -0.029776      0.000013      0.000006
   14 Atom       -0.054297      0.000017      0.000013
   15 Atom       -0.049091      0.000073     -0.000031
   16 Atom       -0.087659     -0.000002     -0.000009
   17 Atom        0.022062     -0.000057     -0.000004
   18 Atom       -0.147312     -0.000034     -0.000010
   19 Atom        0.196696      0.000013     -0.000007
   20 Atom        0.004480      0.000001     -0.000005
   21 Atom       -0.009883      0.000000     -0.000002
   22 Atom       -0.028305      0.000000     -0.000006
   23 Atom       -0.054712     -0.000003     -0.000013
   24 Atom       -0.170514     -0.000021     -0.000010
   25 Atom       -0.046998     -0.000002     -0.000014
   26 Atom        0.265517      0.000031     -0.000021
   27 Atom        0.069664     -0.149355      0.148897
   28 Atom       -0.076875     -0.000002     -0.000001
   29 Atom        0.069660      0.149359     -0.148890
   30 Atom       -0.089822     -0.000001      0.000013
   31 Atom       -0.050840     -0.070517     -0.198896
   32 Atom        0.207959      0.000013     -0.000022
   33 Atom       -0.050867      0.070528      0.198923
 -----------------------------------------------------
 -----------------------------------------------------
    Center         ---- Electric Field Gradient ----
                   ----       Eigenvalues       ----
 -----------------------------------------------------
    1 Atom     -501.024069   -500.773830   -500.628397
    2 Atom     -501.300954   -500.892288   -500.623424
    3 Atom     -500.687099   -500.561241   -500.514326
    4 Atom     -501.237376   -501.176390   -500.541860
    5 Atom     -500.846890   -500.619557   -500.536614
    6 Atom     -501.345900   -500.873920   -500.755699
    7 Atom    -1238.202227  -1235.805575  -1235.520404
    8 Atom     -501.225784   -501.130104   -500.524649
    9 Atom     -500.851310   -500.622003   -500.537803
   10 Atom     -501.684387   -500.978764   -500.940856
   11 Atom     -500.712341   -500.584523   -500.553018
   12 Atom     -501.296919   -500.887779   -500.619102
   13 Atom     -500.988957   -500.726736   -500.594294
   14 Atom     -501.381370   -500.884642   -500.774504
   15 Atom     -812.228728   -812.127631   -810.799105
   16 Atom     -500.592676   -500.068906   -500.044076
   17 Atom     -812.223385   -812.118016   -810.767593
   18 Atom     -500.597511   -500.065782   -500.043631
   19 Atom       -2.138977     -1.685229     -1.651690
   20 Atom       -2.133819     -1.671990     -1.636640
   21 Atom       -2.137469     -1.680437     -1.657604
   22 Atom       -2.126134     -1.674567     -1.657843
   23 Atom       -2.126082     -1.670403     -1.633667
   24 Atom       -2.149384     -1.688381     -1.656905
   25 Atom       -2.138036     -1.681387     -1.659045
   26 Atom       -2.202969     -1.640152     -1.556364
   27 Atom       -2.127628     -1.696829     -1.678092
   28 Atom       -2.135480     -1.696553     -1.670190
   29 Atom       -2.127630     -1.696830     -1.678092
   30 Atom       -2.205189     -1.642153     -1.558521
   31 Atom       -2.129883     -1.698475     -1.679692
   32 Atom       -2.136056     -1.697341     -1.670732
   33 Atom       -2.129886     -1.698476     -1.679693
 -----------------------------------------------------
 -----------------------------------------------------
    Center         ---- Electric Field Gradient ----
                       ( tensor representation )
                   3XX-RR        3YY-RR        3ZZ-RR
 -----------------------------------------------------
    1 Atom        0.171991      0.043312     -0.215303
    2 Atom        0.109041      0.253025     -0.362066
    3 Atom        0.027083      0.072460     -0.099544
    4 Atom       -0.034464      0.225645     -0.191182
    5 Atom        0.131043      0.048160     -0.179203
    6 Atom        0.180355      0.173705     -0.354060
    7 Atom       -1.682948      0.693951      0.988998
    8 Atom       -0.122081      0.292006     -0.169925
    9 Atom        0.132064      0.048874     -0.180938
   10 Atom        0.260387      0.222664     -0.483051
   11 Atom        0.036923      0.058791     -0.095714
   12 Atom        0.138889      0.223430     -0.362319
   13 Atom        0.168630      0.050332     -0.218962
   14 Atom        0.174741      0.193124     -0.367864
   15 Atom       -0.447643     -0.471740      0.919382
   16 Atom        0.176760     -0.343073      0.166313
   17 Atom       -0.515545     -0.419860      0.935405
   18 Atom       -0.319440      0.149580      0.169859
   19 Atom       -0.199864      0.026255      0.173609
   20 Atom        0.142116     -0.319626      0.177510
   21 Atom        0.144519     -0.312085      0.167566
   22 Atom        0.143167     -0.304838      0.161672
   23 Atom        0.132981     -0.309365      0.176383
   24 Atom       -0.242425      0.067773      0.174652
   25 Atom        0.139880     -0.306991      0.167111
   26 Atom       -0.214960     -0.028504      0.243464
   27 Atom        0.080248      0.062395     -0.142643
   28 Atom       -0.287501      0.123616      0.163884
   29 Atom        0.080247      0.062405     -0.142653
   30 Atom        0.145087     -0.388521      0.243434
   31 Atom        0.119871      0.023505     -0.143377
   32 Atom       -0.012200     -0.151778      0.163978
   33 Atom        0.119861      0.023435     -0.143296
 -----------------------------------------------------
 -----------------------------------------------------
    Center         ---- Electric Field Gradient ----
                       ( tensor representation )
                   ----       Eigenvalues       ----
 -----------------------------------------------------
    1 Atom       -0.215303      0.034935      0.180368
    2 Atom       -0.362066      0.046601      0.315465
    3 Atom       -0.099544      0.026314      0.073229
    4 Atom       -0.252167     -0.191182      0.443349
    5 Atom       -0.179203      0.048130      0.131073
    6 Atom       -0.354060      0.117920      0.236140
    7 Atom       -1.692825      0.703827      0.988998
    8 Atom       -0.265605     -0.169925      0.435530
    9 Atom       -0.180938      0.048369      0.132569
   10 Atom       -0.483051      0.222572      0.260479
   11 Atom       -0.095714      0.032104      0.063609
   12 Atom       -0.362319      0.046821      0.315498
   13 Atom       -0.218962      0.043260      0.175702
   14 Atom       -0.367864      0.128863      0.239001
   15 Atom       -0.510240     -0.409143      0.919382
   16 Atom       -0.357457      0.166313      0.191144
   17 Atom       -0.520387     -0.415018      0.935405
   18 Atom       -0.361870      0.169859      0.192011
   19 Atom       -0.313678      0.140070      0.173609
   20 Atom       -0.319669      0.142160      0.177510
   21 Atom       -0.312299      0.144733      0.167566
   22 Atom       -0.306619      0.144948      0.161672
   23 Atom       -0.316031      0.139648      0.176383
   24 Atom       -0.317827      0.143175      0.174652
   25 Atom       -0.311880      0.144769      0.167111
   26 Atom       -0.403141      0.159676      0.243464
   27 Atom       -0.293445      0.137354      0.156091
   28 Atom       -0.301405      0.137521      0.163884
   29 Atom       -0.293446      0.137354      0.156092
   30 Atom       -0.403235      0.159801      0.243434
   31 Atom       -0.293866      0.137541      0.156325
   32 Atom       -0.301346      0.137368      0.163978
   33 Atom       -0.293868      0.137542      0.156326
 -----------------------------------------------------

 Test job not archived.
 1|1|UNPC-NP-ALMACH|FOpt|RB3LYP|6-311++G(d,p)|C15H15N2O1(1+)|HERA|15-Au
 g-2018|0||# RB3LYP/6-311++G** Opt Test prop=EFG||C15N2H15O||1,1|C,-4.0
 425951811,1.1056102513,0.6752239691|C,-3.987325722,-0.3260000401,0.595
 3092503|C,-2.7394523991,-0.9571895858,0.4080480407|C,-1.6044107964,-0.
 1809318093,0.3066320361|C,-1.6361943046,1.2421437975,0.3832035665|C,-2
 .9101286486,1.8544815364,0.5727319825|O,-0.4238569948,-0.8305236641,0.
 1267773104|C,0.7542370114,-0.1556745022,0.0149388361|C,0.7723509068,1.
 2691435376,0.0854166874|C,-0.4357448527,1.9426010782,0.2698453441|C,1.
 895557318,-0.8993236134,-0.1647593122|C,3.1420680351,-0.2428776059,-0.
 2860530951|C,3.1843001962,1.1869685448,-0.2183035368|C,2.0373500889,1.
 9071698108,-0.0391058639|N,-5.1310072988,-1.0311657233,0.7014395731|C,
 -5.2340117246,-2.4826640973,0.6401578294|N,4.2684473054,-0.9638780071,
 -0.4627556268|C,5.6137984584,-0.4186826091,-0.6019521371|H,-5.00409525
 74,1.5852708816,0.8191607863|H,-2.649258803,-2.0320614249,0.3419927998
 |H,-2.9640660583,2.93530303,0.6345800144|H,-0.4408858424,3.0267279388,
 0.3258077787|H,1.8272885784,-1.9794180043,-0.2114158546|H,4.1316107416
 ,1.699730881,-0.3097606978|H,2.0804596948,2.9892413426,0.010779215|H,-
 5.984081804,-0.510552524,0.834024838|H,-4.6619599535,-2.9543922287,1.4
 442597407|H,-6.280226686,-2.7593180396,0.7559918918|H,-4.881398272,-2.
 864228734,-0.3223499947|H,4.1731485641,-1.9668588724,-0.5020690577|H,5
 .9112473151,0.1406336989,0.2891837698|H,6.3062760244,-1.2485127711,-0.
 7303664236|H,5.6918003608,0.2309525271,-1.4779206595||Version=EM64W-G0
 9RevD.01|State=1-A|HF=-765.3609387|RMSD=4.260e-009|RMSF=5.847e-005|Dip
 ole=-0.0709415,-0.266819,-0.004668|Quadrupole=45.7268296,-11.5376673,-
 34.1891622,2.4830985,-9.9594454,0.9127|PG=C01 [X(C15H15N2O1)]||@


 SUCCESS IS NEVER CERTAIN,
 FAILURE IS NEVER FINAL.
 Job cpu time:       0 days  0 hours 33 minutes 41.0 seconds.
 File lengths (MBytes):  RWF=    131 Int=      0 D2E=      0 Chk=     22 Scr=      1
 Normal termination of Gaussian 09 at Wed Aug 15 23:59:54 2018.
