 Entering Link 1 = C:\G09W\l1.exe PID=     60112.
  
 Copyright (c) 1988,1990,1992,1993,1995,1998,2003,2009,2013,
            Gaussian, Inc.  All Rights Reserved.
  
 This is part of the Gaussian(R) 09 program.  It is based on
 the Gaussian(R) 03 system (copyright 2003, Gaussian, Inc.),
 the Gaussian(R) 98 system (copyright 1998, Gaussian, Inc.),
 the Gaussian(R) 94 system (copyright 1995, Gaussian, Inc.),
 the Gaussian 92(TM) system (copyright 1992, Gaussian, Inc.),
 the Gaussian 90(TM) system (copyright 1990, Gaussian, Inc.),
 the Gaussian 88(TM) system (copyright 1988, Gaussian, Inc.),
 the Gaussian 86(TM) system (copyright 1986, Carnegie Mellon
 University), and the Gaussian 82(TM) system (copyright 1983,
 Carnegie Mellon University). Gaussian is a federally registered
 trademark of Gaussian, Inc.
  
 This software contains proprietary and confidential information,
 including trade secrets, belonging to Gaussian, Inc.
  
 This software is provided under written license and may be
 used, copied, transmitted, or stored only in accord with that
 written license.
  
 The following legend is applicable only to US Government
 contracts under FAR:
  
                    RESTRICTED RIGHTS LEGEND
  
 Use, reproduction and disclosure by the US Government is
 subject to restrictions as set forth in subparagraphs (a)
 and (c) of the Commercial Computer Software - Restricted
 Rights clause in FAR 52.227-19.
  
 Gaussian, Inc.
 340 Quinnipiac St., Bldg. 40, Wallingford CT 06492
  
  
 ---------------------------------------------------------------
 Warning -- This program may not be used in any manner that
 competes with the business of Gaussian, Inc. or will provide
 assistance to any competitor of Gaussian, Inc.  The licensee
 of this program is prohibited from giving any competitor of
 Gaussian, Inc. access to this program.  By using this program,
 the user acknowledges that Gaussian, Inc. is engaged in the
 business of creating and licensing software in the field of
 computational chemistry and represents and warrants to the
 licensee that it is not a competitor of Gaussian, Inc. and that
 it will not use this program in any manner prohibited above.
 ---------------------------------------------------------------
  

 Cite this work as:
 Gaussian 09, Revision D.01,
 M. J. Frisch, G. W. Trucks, H. B. Schlegel, G. E. Scuseria, 
 M. A. Robb, J. R. Cheeseman, G. Scalmani, V. Barone, B. Mennucci, 
 G. A. Petersson, H. Nakatsuji, M. Caricato, X. Li, H. P. Hratchian, 
 A. F. Izmaylov, J. Bloino, G. Zheng, J. L. Sonnenberg, M. Hada, 
 M. Ehara, K. Toyota, R. Fukuda, J. Hasegawa, M. Ishida, T. Nakajima, 
 Y. Honda, O. Kitao, H. Nakai, T. Vreven, J. A. Montgomery, Jr., 
 J. E. Peralta, F. Ogliaro, M. Bearpark, J. J. Heyd, E. Brothers, 
 K. N. Kudin, V. N. Staroverov, T. Keith, R. Kobayashi, J. Normand, 
 K. Raghavachari, A. Rendell, J. C. Burant, S. S. Iyengar, J. Tomasi, 
 M. Cossi, N. Rega, J. M. Millam, M. Klene, J. E. Knox, J. B. Cross, 
 V. Bakken, C. Adamo, J. Jaramillo, R. Gomperts, R. E. Stratmann, 
 O. Yazyev, A. J. Austin, R. Cammi, C. Pomelli, J. W. Ochterski, 
 R. L. Martin, K. Morokuma, V. G. Zakrzewski, G. A. Voth, 
 P. Salvador, J. J. Dannenberg, S. Dapprich, A. D. Daniels, 
 O. Farkas, J. B. Foresman, J. V. Ortiz, J. Cioslowski, 
 and D. J. Fox, Gaussian, Inc., Wallingford CT, 2013.
 
 ******************************************
 Gaussian 09:  EM64W-G09RevD.01 13-Apr-2013
                15-Aug-2018 
 ******************************************
 %Chk=Anth_246.chk
 %Mem=64GB
 %NProcShared=20
 Will use up to   20 processors via shared memory.
 -------------------------------------
 # RB3LYP/6-311++G** Opt Test prop=EFG
 -------------------------------------
 1/14=-1,18=20,19=15,26=3,38=1/1,3;
 2/9=110,12=2,17=6,18=5,40=1/2;
 3/5=4,6=6,7=1111,11=2,16=1,25=1,30=1,71=1,74=-5,116=1/1,2,3;
 4//1;
 5/5=2,38=5/2;
 6/7=2,8=2,9=2,10=2,14=1,28=1/1,2;
 7//1,2,3,16;
 1/14=-1,18=20,19=15,26=3/3(2);
 2/9=110/2;
 99//99;
 2/9=110/2;
 3/5=4,6=6,7=1111,11=2,16=1,25=1,30=1,71=1,74=-5,116=1/1,2,3;
 4/5=5,16=3,69=1/1;
 5/5=2,38=5/2;
 7//1,2,3,16;
 1/14=-1,18=20,19=15,26=3/3(-5);
 2/9=110/2;
 6/7=2,8=2,9=2,10=2,14=1,19=2,28=1/1,2;
 99/9=1/99;
 ---------
 SiC7N2H22
 ---------
 Symbolic Z-matrix:
 Charge =  0 Multiplicity = 1
 N                    -4.10656   0.99026  -1.47714 
 C                    -3.24877  -0.2133   -1.17953 
 C                    -1.74245   0.1248   -1.25534 
 C                    -1.15246   0.79444   0.00119 
 N                     0.36011   0.91042  -0.09092 
 C                     1.17738  -0.3538   -0.08781 
 Si                    3.00667   0.10541  -0.00829 
 C                     4.04104  -1.46639   0.01148 
 C                     3.33571   1.10061   1.55452 
 C                     3.45058   1.13613  -1.51916 
 H                    -5.11477   0.7189   -1.43457 
 H                    -3.91465   1.73557  -0.77022 
 H                    -3.88085   1.35009  -2.43191 
 H                    -3.50159  -0.99006  -1.9396 
 H                    -3.51428  -0.61876  -0.17696 
 H                    -1.21151  -0.8442   -1.41422 
 H                    -1.53676   0.75198  -2.15451 
 H                    -1.58056   1.81774   0.10967 
 H                    -1.41331   0.21563   0.91691 
 H                     0.67256   1.48562   0.72523 
 H                     0.58681   1.438    -0.96506 
 H                     0.9945   -0.94286  -1.0135 
 H                     0.9147   -0.97106   0.80102 
 H                     3.82738  -2.03827  -0.91846 
 H                     5.11477  -1.17897   0.05548 
 H                     3.75869  -2.06041   0.90862 
 H                     2.72398   2.02887   1.51716 
 H                     4.41932   1.34957   1.58916 
 H                     3.0494    0.47965   2.43191 
 H                     3.2365    0.53332  -2.42924 
 H                     2.83171   2.06041  -1.50899 
 H                     4.53213   1.39035  -1.46425 
 

 GradGradGradGradGradGradGradGradGradGradGradGradGradGradGradGradGradGrad
 Berny optimization.
 Initialization pass.
                           ----------------------------
                           !    Initial Parameters    !
                           ! (Angstroms and Degrees)  !
 --------------------------                            --------------------------
 ! Name  Definition              Value          Derivative Info.                !
 --------------------------------------------------------------------------------
 ! R1    R(1,2)                  1.5076         estimate D2E/DX2                !
 ! R2    R(1,11)                 1.045          estimate D2E/DX2                !
 ! R3    R(1,12)                 1.045          estimate D2E/DX2                !
 ! R4    R(1,13)                 1.045          estimate D2E/DX2                !
 ! R5    R(2,3)                  1.5457         estimate D2E/DX2                !
 ! R6    R(2,14)                 1.1158         estimate D2E/DX2                !
 ! R7    R(2,15)                 1.1136         estimate D2E/DX2                !
 ! R8    R(3,4)                  1.5412         estimate D2E/DX2                !
 ! R9    R(3,16)                 1.1163         estimate D2E/DX2                !
 ! R10   R(3,17)                 1.1154         estimate D2E/DX2                !
 ! R11   R(4,5)                  1.5198         estimate D2E/DX2                !
 ! R12   R(4,18)                 1.1145         estimate D2E/DX2                !
 ! R13   R(4,19)                 1.1143         estimate D2E/DX2                !
 ! R14   R(5,6)                  1.5054         estimate D2E/DX2                !
 ! R15   R(5,20)                 1.0462         estimate D2E/DX2                !
 ! R16   R(5,21)                 1.0459         estimate D2E/DX2                !
 ! R17   R(6,7)                  1.8877         estimate D2E/DX2                !
 ! R18   R(6,22)                 1.1124         estimate D2E/DX2                !
 ! R19   R(6,23)                 1.1136         estimate D2E/DX2                !
 ! R20   R(7,8)                  1.8817         estimate D2E/DX2                !
 ! R21   R(7,9)                  1.8818         estimate D2E/DX2                !
 ! R22   R(7,10)                 1.8821         estimate D2E/DX2                !
 ! R23   R(8,24)                 1.1124         estimate D2E/DX2                !
 ! R24   R(8,25)                 1.1124         estimate D2E/DX2                !
 ! R25   R(8,26)                 1.1124         estimate D2E/DX2                !
 ! R26   R(9,27)                 1.1123         estimate D2E/DX2                !
 ! R27   R(9,28)                 1.1124         estimate D2E/DX2                !
 ! R28   R(9,29)                 1.1124         estimate D2E/DX2                !
 ! R29   R(10,30)                1.1124         estimate D2E/DX2                !
 ! R30   R(10,31)                1.1124         estimate D2E/DX2                !
 ! R31   R(10,32)                1.1124         estimate D2E/DX2                !
 ! A1    A(2,1,11)             109.4881         estimate D2E/DX2                !
 ! A2    A(2,1,12)             109.3497         estimate D2E/DX2                !
 ! A3    A(2,1,13)             109.4115         estimate D2E/DX2                !
 ! A4    A(11,1,12)            109.5627         estimate D2E/DX2                !
 ! A5    A(11,1,13)            109.5756         estimate D2E/DX2                !
 ! A6    A(12,1,13)            109.4394         estimate D2E/DX2                !
 ! A7    A(1,2,3)              111.727          estimate D2E/DX2                !
 ! A8    A(1,2,14)             106.9992         estimate D2E/DX2                !
 ! A9    A(1,2,15)             109.435          estimate D2E/DX2                !
 ! A10   A(3,2,14)             109.858          estimate D2E/DX2                !
 ! A11   A(3,2,15)             110.8648         estimate D2E/DX2                !
 ! A12   A(14,2,15)            107.8059         estimate D2E/DX2                !
 ! A13   A(2,3,4)              115.3483         estimate D2E/DX2                !
 ! A14   A(2,3,16)             106.2975         estimate D2E/DX2                !
 ! A15   A(2,3,17)             110.0133         estimate D2E/DX2                !
 ! A16   A(4,3,16)             108.1272         estimate D2E/DX2                !
 ! A17   A(4,3,17)             110.0186         estimate D2E/DX2                !
 ! A18   A(16,3,17)            106.5971         estimate D2E/DX2                !
 ! A19   A(3,4,5)              111.3911         estimate D2E/DX2                !
 ! A20   A(3,4,18)             109.3439         estimate D2E/DX2                !
 ! A21   A(3,4,19)             110.7749         estimate D2E/DX2                !
 ! A22   A(5,4,18)             108.5488         estimate D2E/DX2                !
 ! A23   A(5,4,19)             108.8096         estimate D2E/DX2                !
 ! A24   A(18,4,19)            107.8799         estimate D2E/DX2                !
 ! A25   A(4,5,6)              118.4307         estimate D2E/DX2                !
 ! A26   A(4,5,20)             106.9715         estimate D2E/DX2                !
 ! A27   A(4,5,21)             107.7504         estimate D2E/DX2                !
 ! A28   A(6,5,20)             107.3359         estimate D2E/DX2                !
 ! A29   A(6,5,21)             107.9196         estimate D2E/DX2                !
 ! A30   A(20,5,21)            108.0552         estimate D2E/DX2                !
 ! A31   A(5,6,7)              108.7769         estimate D2E/DX2                !
 ! A32   A(5,6,22)             110.7168         estimate D2E/DX2                !
 ! A33   A(5,6,23)             109.8219         estimate D2E/DX2                !
 ! A34   A(7,6,22)             108.8561         estimate D2E/DX2                !
 ! A35   A(7,6,23)             109.2568         estimate D2E/DX2                !
 ! A36   A(22,6,23)            109.3854         estimate D2E/DX2                !
 ! A37   A(6,7,8)              109.2644         estimate D2E/DX2                !
 ! A38   A(6,7,9)              109.4557         estimate D2E/DX2                !
 ! A39   A(6,7,10)             109.1455         estimate D2E/DX2                !
 ! A40   A(8,7,9)              109.6891         estimate D2E/DX2                !
 ! A41   A(8,7,10)             109.6478         estimate D2E/DX2                !
 ! A42   A(9,7,10)             109.6227         estimate D2E/DX2                !
 ! A43   A(7,8,24)             108.3637         estimate D2E/DX2                !
 ! A44   A(7,8,25)             108.3713         estimate D2E/DX2                !
 ! A45   A(7,8,26)             108.3603         estimate D2E/DX2                !
 ! A46   A(24,8,25)            110.5662         estimate D2E/DX2                !
 ! A47   A(24,8,26)            110.5441         estimate D2E/DX2                !
 ! A48   A(25,8,26)            110.5528         estimate D2E/DX2                !
 ! A49   A(7,9,27)             108.4989         estimate D2E/DX2                !
 ! A50   A(7,9,28)             108.3337         estimate D2E/DX2                !
 ! A51   A(7,9,29)             108.3506         estimate D2E/DX2                !
 ! A52   A(27,9,28)            110.487          estimate D2E/DX2                !
 ! A53   A(27,9,29)            110.5367         estimate D2E/DX2                !
 ! A54   A(28,9,29)            110.555          estimate D2E/DX2                !
 ! A55   A(7,10,30)            108.3362         estimate D2E/DX2                !
 ! A56   A(7,10,31)            108.45           estimate D2E/DX2                !
 ! A57   A(7,10,32)            108.3522         estimate D2E/DX2                !
 ! A58   A(30,10,31)           110.5286         estimate D2E/DX2                !
 ! A59   A(30,10,32)           110.5695         estimate D2E/DX2                !
 ! A60   A(31,10,32)           110.5235         estimate D2E/DX2                !
 ! D1    D(11,1,2,3)           178.9172         estimate D2E/DX2                !
 ! D2    D(11,1,2,14)           58.639          estimate D2E/DX2                !
 ! D3    D(11,1,2,15)          -57.9095         estimate D2E/DX2                !
 ! D4    D(12,1,2,3)           -61.0349         estimate D2E/DX2                !
 ! D5    D(12,1,2,14)          178.6869         estimate D2E/DX2                !
 ! D6    D(12,1,2,15)           62.1385         estimate D2E/DX2                !
 ! D7    D(13,1,2,3)            58.8156         estimate D2E/DX2                !
 ! D8    D(13,1,2,14)          -61.4626         estimate D2E/DX2                !
 ! D9    D(13,1,2,15)         -178.011          estimate D2E/DX2                !
 ! D10   D(1,2,3,4)             81.327          estimate D2E/DX2                !
 ! D11   D(1,2,3,16)          -158.8586         estimate D2E/DX2                !
 ! D12   D(1,2,3,17)           -43.8208         estimate D2E/DX2                !
 ! D13   D(14,2,3,4)          -160.0833         estimate D2E/DX2                !
 ! D14   D(14,2,3,16)          -40.2688         estimate D2E/DX2                !
 ! D15   D(14,2,3,17)           74.7689         estimate D2E/DX2                !
 ! D16   D(15,2,3,4)           -41.0311         estimate D2E/DX2                !
 ! D17   D(15,2,3,16)           78.7833         estimate D2E/DX2                !
 ! D18   D(15,2,3,17)         -166.1789         estimate D2E/DX2                !
 ! D19   D(2,3,4,5)            172.0733         estimate D2E/DX2                !
 ! D20   D(2,3,4,18)           -67.953          estimate D2E/DX2                !
 ! D21   D(2,3,4,19)            50.8106         estimate D2E/DX2                !
 ! D22   D(16,3,4,5)            53.2686         estimate D2E/DX2                !
 ! D23   D(16,3,4,18)          173.2423         estimate D2E/DX2                !
 ! D24   D(16,3,4,19)          -67.9941         estimate D2E/DX2                !
 ! D25   D(17,3,4,5)           -62.7816         estimate D2E/DX2                !
 ! D26   D(17,3,4,18)           57.1921         estimate D2E/DX2                !
 ! D27   D(17,3,4,19)          175.9557         estimate D2E/DX2                !
 ! D28   D(3,4,5,6)            -66.3075         estimate D2E/DX2                !
 ! D29   D(3,4,5,20)           172.3943         estimate D2E/DX2                !
 ! D30   D(3,4,5,21)            56.422          estimate D2E/DX2                !
 ! D31   D(18,4,5,6)           173.25           estimate D2E/DX2                !
 ! D32   D(18,4,5,20)           51.9518         estimate D2E/DX2                !
 ! D33   D(18,4,5,21)          -64.0205         estimate D2E/DX2                !
 ! D34   D(19,4,5,6)            56.0945         estimate D2E/DX2                !
 ! D35   D(19,4,5,20)          -65.2037         estimate D2E/DX2                !
 ! D36   D(19,4,5,21)          178.824          estimate D2E/DX2                !
 ! D37   D(4,5,6,7)           -173.4742         estimate D2E/DX2                !
 ! D38   D(4,5,6,22)            66.9524         estimate D2E/DX2                !
 ! D39   D(4,5,6,23)           -53.9476         estimate D2E/DX2                !
 ! D40   D(20,5,6,7)           -52.3617         estimate D2E/DX2                !
 ! D41   D(20,5,6,22)         -171.9351         estimate D2E/DX2                !
 ! D42   D(20,5,6,23)           67.1649         estimate D2E/DX2                !
 ! D43   D(21,5,6,7)            63.8811         estimate D2E/DX2                !
 ! D44   D(21,5,6,22)          -55.6924         estimate D2E/DX2                !
 ! D45   D(21,5,6,23)         -176.5923         estimate D2E/DX2                !
 ! D46   D(5,6,7,8)            179.51           estimate D2E/DX2                !
 ! D47   D(5,6,7,9)             59.3793         estimate D2E/DX2                !
 ! D48   D(5,6,7,10)           -60.5977         estimate D2E/DX2                !
 ! D49   D(22,6,7,8)           -59.764          estimate D2E/DX2                !
 ! D50   D(22,6,7,9)          -179.8946         estimate D2E/DX2                !
 ! D51   D(22,6,7,10)           60.1283         estimate D2E/DX2                !
 ! D52   D(23,6,7,8)            59.6318         estimate D2E/DX2                !
 ! D53   D(23,6,7,9)           -60.4988         estimate D2E/DX2                !
 ! D54   D(23,6,7,10)          179.5242         estimate D2E/DX2                !
 ! D55   D(6,7,8,24)            59.8248         estimate D2E/DX2                !
 ! D56   D(6,7,8,25)           179.8417         estimate D2E/DX2                !
 ! D57   D(6,7,8,26)           -60.1593         estimate D2E/DX2                !
 ! D58   D(9,7,8,24)           179.812          estimate D2E/DX2                !
 ! D59   D(9,7,8,25)           -60.171          estimate D2E/DX2                !
 ! D60   D(9,7,8,26)            59.828          estimate D2E/DX2                !
 ! D61   D(10,7,8,24)          -59.7579         estimate D2E/DX2                !
 ! D62   D(10,7,8,25)           60.259          estimate D2E/DX2                !
 ! D63   D(10,7,8,26)         -179.742          estimate D2E/DX2                !
 ! D64   D(6,7,9,27)           -60.7427         estimate D2E/DX2                !
 ! D65   D(6,7,9,28)           179.2792         estimate D2E/DX2                !
 ! D66   D(6,7,9,29)            59.3048         estimate D2E/DX2                !
 ! D67   D(8,7,9,27)           179.3868         estimate D2E/DX2                !
 ! D68   D(8,7,9,28)            59.4088         estimate D2E/DX2                !
 ! D69   D(8,7,9,29)           -60.5657         estimate D2E/DX2                !
 ! D70   D(10,7,9,27)           58.9415         estimate D2E/DX2                !
 ! D71   D(10,7,9,28)          -61.0365         estimate D2E/DX2                !
 ! D72   D(10,7,9,29)          178.989          estimate D2E/DX2                !
 ! D73   D(6,7,10,30)          -59.4381         estimate D2E/DX2                !
 ! D74   D(6,7,10,31)           60.5632         estimate D2E/DX2                !
 ! D75   D(6,7,10,32)         -179.4323         estimate D2E/DX2                !
 ! D76   D(8,7,10,30)           60.2174         estimate D2E/DX2                !
 ! D77   D(8,7,10,31)         -179.7812         estimate D2E/DX2                !
 ! D78   D(8,7,10,32)          -59.7768         estimate D2E/DX2                !
 ! D79   D(9,7,10,30)         -179.3122         estimate D2E/DX2                !
 ! D80   D(9,7,10,31)          -59.3108         estimate D2E/DX2                !
 ! D81   D(9,7,10,32)           60.6936         estimate D2E/DX2                !
 --------------------------------------------------------------------------------
 Trust Radius=3.00D-01 FncErr=1.00D-07 GrdErr=1.00D-06
 Number of steps in this run=    182 maximum allowed number of steps=    192.
 GradGradGradGradGradGradGradGradGradGradGradGradGradGradGradGradGradGrad

                          Input orientation:                          
 ---------------------------------------------------------------------
 Center     Atomic      Atomic             Coordinates (Angstroms)
 Number     Number       Type             X           Y           Z
 ---------------------------------------------------------------------
      1          7           0       -4.106565    0.990256   -1.477142
      2          6           0       -3.248769   -0.213300   -1.179531
      3          6           0       -1.742449    0.124801   -1.255336
      4          6           0       -1.152461    0.794441    0.001185
      5          7           0        0.360114    0.910420   -0.090922
      6          6           0        1.177376   -0.353804   -0.087809
      7         14           0        3.006670    0.105405   -0.008289
      8          6           0        4.041042   -1.466394    0.011481
      9          6           0        3.335706    1.100605    1.554524
     10          6           0        3.450582    1.136133   -1.519163
     11          1           0       -5.114773    0.718897   -1.434567
     12          1           0       -3.914648    1.735572   -0.770219
     13          1           0       -3.880845    1.350085   -2.431907
     14          1           0       -3.501590   -0.990058   -1.939597
     15          1           0       -3.514279   -0.618757   -0.176964
     16          1           0       -1.211510   -0.844197   -1.414223
     17          1           0       -1.536761    0.751980   -2.154512
     18          1           0       -1.580558    1.817737    0.109665
     19          1           0       -1.413306    0.215631    0.916910
     20          1           0        0.672557    1.485624    0.725231
     21          1           0        0.586811    1.437997   -0.965055
     22          1           0        0.994500   -0.942862   -1.013497
     23          1           0        0.914702   -0.971058    0.801016
     24          1           0        3.827380   -2.038265   -0.918457
     25          1           0        5.114773   -1.178969    0.055484
     26          1           0        3.758689   -2.060407    0.908619
     27          1           0        2.723983    2.028870    1.517155
     28          1           0        4.419321    1.349568    1.589155
     29          1           0        3.049404    0.479652    2.431907
     30          1           0        3.236496    0.533320   -2.429243
     31          1           0        2.831707    2.060407   -1.508985
     32          1           0        4.532127    1.390349   -1.464254
 ---------------------------------------------------------------------
                    Distance matrix (angstroms):
                    1          2          3          4          5
     1  N    0.000000
     2  C    1.507625   0.000000
     3  C    2.527302   1.545658   0.000000
     4  C    3.309158   2.608475   1.541217   0.000000
     5  N    4.677521   3.933428   2.528602   1.519809   0.000000
     6  C    5.626435   4.560960   3.180811   2.598947   1.505387
     7  Si   7.317008   6.372119   4.910156   4.215831   2.767514
     8  C    8.639133   7.492002   6.130701   5.664270   4.382803
     9  C    8.036826   7.249601   5.885165   4.759227   3.405556
    10  C    7.558672   6.842340   5.297166   4.859652   3.412010
    11  H    1.044955   2.101429   3.428942   4.215093   5.640607
    12  H    1.045021   2.099770   2.747430   3.018355   4.406349
    13  H    1.044989   2.100509   2.731003   3.697669   4.864077
    14  H    2.121675   1.115783   2.192191   3.531215   4.684247
    15  H    2.151787   1.113567   2.203440   2.758088   4.166138
    16  H    3.427903   2.145585   1.116288   2.166103   2.701816
    17  H    2.668239   2.193929   1.115428   2.190096   2.807426
    18  H    3.095706   2.927467   2.180704   1.114527   2.151666
    19  H    3.685807   2.819215   2.198917   1.114277   2.154873
    20  H    5.285437   4.678810   3.406866   2.081506   1.046225
    21  H    4.742413   4.181442   2.689647   2.091136   1.045867
    22  H    5.474740   4.308731   2.947759   2.942319   2.165235
    23  H    5.852340   4.672393   3.534111   2.833704   2.154781
    24  H    8.510673   7.312355   5.984592   5.802481   4.626175
    25  H    9.596226   8.509208   7.102081   6.570808   5.195552
    26  H    8.767019   7.541660   6.302409   5.752651   4.623333
    27  H    7.530001   6.926269   5.591172   4.341520   3.069970
    28  H    9.067636   8.301071   6.896274   5.820186   4.415051
    29  H    8.170023   7.293123   6.056693   4.864481   3.712480
    30  H    7.418614   6.646645   5.131748   5.023754   3.726060
    31  H    7.020389   6.500036   4.973310   4.444871   3.072807
    32  H    8.647962   7.949535   6.404339   5.900607   4.418378
                    6          7          8          9         10
     6  C    0.000000
     7  Si   1.887727   0.000000
     8  C    3.073808   1.881720   0.000000
     9  C    3.077491   1.881774   3.077006   0.000000
    10  C    3.071832   1.882073   3.076469   3.076038   0.000000
    11  H    6.523464   8.268523   9.523418   8.971676   8.575928
    12  H    5.546159   7.151407   8.611425   7.640370   7.427439
    13  H    5.829548   7.406822   8.755512   8.248180   7.391123
    14  H    5.072146   6.876586   7.805440   7.957912   7.282180
    15  H    4.699976   6.563203   7.605056   7.271626   7.306875
    16  H    2.776083   4.546585   5.478053   5.768266   5.066342
    17  H    3.586162   5.066271   6.381582   6.133467   5.042304
    18  H    3.515791   4.897821   6.511340   5.174123   5.331982
    19  H    2.836433   4.517115   5.779180   4.872663   5.517172
    20  H    2.073493   2.809117   4.535476   2.815729   3.588436
    21  H    2.080596   2.923512   4.617448   3.744133   2.932463
    22  H    1.112354   2.481559   3.256698   4.031344   3.257339
    23  H    1.113557   2.487987   3.262319   3.274267   4.031646
    24  H    3.248062   2.469269   1.112417   4.026150   3.252634
    25  H    4.025484   2.469369   1.112406   3.257093   3.257106
    26  H    3.250929   2.469209   1.112399   3.253937   4.025782
    27  H    3.262673   2.471155   4.027228   1.112330   3.247176
    28  H    4.027889   2.468877   3.249891   1.112386   3.262767
    29  H    3.247785   2.469098   3.260200   1.112363   4.025278
    30  H    3.241802   2.469200   3.256268   4.025178   1.112413
    31  H    3.253455   2.470776   4.026491   3.249665   1.112381
    32  H    4.023807   2.469400   3.252682   3.260122   1.112376
                   11         12         13         14         15
    11  H    0.000000
    12  H    1.707421   0.000000
    13  H    1.707531   1.706151   0.000000
    14  H    2.403735   2.994515   2.421254   0.000000
    15  H    2.435665   2.460714   3.015871   1.801361   0.000000
    16  H    4.204657   3.791689   3.602208   2.354094   2.623810
    17  H    3.649875   2.921997   2.435037   2.634661   3.114513
    18  H    4.010334   2.495781   3.459712   3.971593   3.123770
    19  H    4.414021   3.378363   4.311648   3.738215   2.511345
    20  H    6.224611   4.831283   5.542505   5.536589   4.771999
    21  H    5.765900   4.515489   4.703120   4.853886   4.655133
    22  H    6.345231   5.597582   5.571219   4.590720   4.597164
    23  H    6.648936   5.754759   6.231915   5.197591   4.549333
    24  H    9.371788   8.614106   8.555009   7.473638   7.514304
    25  H   10.510269   9.524011   9.669766   8.846341   8.650341
    26  H    9.589232   8.723993   9.008499   7.872079   7.493524
    27  H    8.477900   7.027768   7.725257   7.734392   6.985405
    28  H   10.021955   8.670103   9.222890   8.981468   8.362744
    29  H    9.036628   7.767172   8.511327   8.011593   7.148052
    30  H    8.412343   7.438860   7.164053   6.925477   7.209231
    31  H    8.059264   6.794454   6.812833   7.042827   7.015963
    32  H    9.670285   8.482268   8.468534   8.392431   8.392751
                   16         17         18         19         20
    16  H    0.000000
    17  H    1.789301   0.000000
    18  H    3.089389   2.502849   0.000000
    19  H    2.568684   3.120344   1.801766   0.000000
    20  H    3.681717   3.703004   2.359184   2.449581   0.000000
    21  H    2.940088   2.528831   2.448819   3.006067   1.693129
    22  H    2.244281   3.252950   3.938696   3.296378   3.004058
    23  H    3.073134   4.208762   3.805478   2.615585   2.469750
    24  H    5.202114   6.171492   6.720981   5.992780   5.007236
    25  H    6.503381   7.270182   7.335574   6.730734   5.223208
    26  H    5.619399   6.733059   6.647247   5.650659   4.704485
    27  H    5.686440   5.767627   4.533727   4.556895   2.265085
    28  H    6.748270   7.060246   6.197308   5.979738   3.847482
    29  H    5.890728   6.491711   5.349750   4.720244   3.094208
    30  H    4.765771   4.786154   5.594622   5.737449   4.175089
    31  H    4.979288   4.605670   4.706060   5.225734   3.159751
    32  H    6.163202   6.141284   6.326516   6.511381   4.438378
                   21         22         23         24         25
    21  H    0.000000
    22  H    2.415998   0.000000
    23  H    3.005007   1.816486   0.000000
    24  H    4.752668   3.038774   3.546718   0.000000
    25  H    5.328457   4.263228   4.270789   1.828751   0.000000
    26  H    5.080383   3.547418   3.047379   1.828501   1.828589
    27  H    3.328363   4.269251   3.575741   4.867369   4.259412
    28  H    4.606511   4.874262   4.276543   4.256281   3.037976
    29  H    4.303736   4.256405   3.053083   4.262639   3.558674
    30  H    3.159607   3.034798   4.253052   3.040505   3.554395
    31  H    2.392240   3.555343   4.266239   4.259014   4.260694
    32  H    3.977058   4.261673   4.877854   3.542592   3.041459
                   26         27         28         29         30
    26  H    0.000000
    27  H    4.261821   0.000000
    28  H    3.539420   1.827787   0.000000
    29  H    3.045553   1.828318   1.828567   0.000000
    30  H    4.259276   4.251282   4.267653   4.865045   0.000000
    31  H    4.866746   3.028221   3.553067   4.251683   1.828312
    32  H    4.258691   3.544840   3.055764   4.267072   1.828760
                   31         32
    31  H    0.000000
    32  H    1.828225   0.000000
 Stoichiometry    C7H22N2Si
 Framework group  C1[X(C7H22N2Si)]
 Deg. of freedom    90
 Full point group                 C1      NOp   1
 Largest Abelian subgroup         C1      NOp   1
 Largest concise Abelian subgroup C1      NOp   1
                         Standard orientation:                         
 ---------------------------------------------------------------------
 Center     Atomic      Atomic             Coordinates (Angstroms)
 Number     Number       Type             X           Y           Z
 ---------------------------------------------------------------------
      1          7           0        4.932825    0.209187    0.349995
      2          6           0        3.961273   -0.680592   -0.383021
      3          6           0        2.519462   -0.513487    0.148313
      4          6           0        1.748794    0.700920   -0.405434
      5          7           0        0.290035    0.672698    0.020057
      6          6           0       -0.590731   -0.425889   -0.512435
      7         14           0       -2.370594   -0.089003    0.018702
      8          6           0       -3.486524   -1.447140   -0.652887
      9          6           0       -2.922108    1.577651   -0.658918
     10          6           0       -2.460330   -0.068038    1.898518
     11          1           0        5.896565    0.055140   -0.023375
     12          1           0        4.659514    1.208297    0.211614
     13          1           0        4.911675   -0.019154    1.369512
     14          1           0        4.302235   -1.731887   -0.229738
     15          1           0        4.009694   -0.462540   -1.473957
     16          1           0        1.968013   -1.438379   -0.145929
     17          1           0        2.524276   -0.486566    1.263405
     18          1           0        2.212171    1.638811   -0.020970
     19          1           0        1.797999    0.726277   -1.518335
     20          1           0       -0.132398    1.582567   -0.277053
     21          1           0        0.263376    0.628699    1.064658
     22          1           0       -0.275816   -1.413331   -0.108556
     23          1           0       -0.537123   -0.447275   -1.624496
     24          1           0       -3.139560   -2.420952   -0.242060
     25          1           0       -4.529628   -1.235862   -0.329247
     26          1           0       -3.413718   -1.443551   -1.762895
     27          1           0       -2.257453    2.365818   -0.241421
     28          1           0       -3.975558    1.751111   -0.346573
     29          1           0       -2.843432    1.548127   -1.768103
     30          1           0       -2.118576   -1.056974    2.276238
     31          1           0       -1.797762    0.742969    2.273568
     32          1           0       -3.515197    0.120943    2.196715
 ---------------------------------------------------------------------
 Rotational constants (GHZ):      2.3701598      0.3488635      0.3440147
 Standard basis: 6-311++G(d,p) (5D, 7F)
 There are   392 symmetry adapted cartesian basis functions of A   symmetry.
 There are   382 symmetry adapted basis functions of A   symmetry.
   382 basis functions,   572 primitive gaussians,   392 cartesian basis functions
    46 alpha electrons       46 beta electrons
       nuclear repulsion energy       667.0512695195 Hartrees.
 NAtoms=   32 NActive=   32 NUniq=   32 SFac= 1.00D+00 NAtFMM=   60 NAOKFM=F Big=F
 Integral buffers will be    131072 words long.
 Raffenetti 2 integral format.
 Two-electron integral symmetry is turned on.
 One-electron integrals computed using PRISM.
 NBasis=   382 RedAO= T EigKep=  1.08D-05  NBF=   382
 NBsUse=   382 1.00D-06 EigRej= -1.00D+00 NBFU=   382
 ExpMin= 3.31D-02 ExpMax= 6.94D+04 ExpMxC= 2.33D+03 IAcc=3 IRadAn=         5 AccDes= 0.00D+00
 Harris functional with IExCor=  402 and IRadAn=       5 diagonalized for initial guess.
 HarFok:  IExCor=  402 AccDes= 0.00D+00 IRadAn=         5 IDoV= 1 UseB2=F ITyADJ=14
 ICtDFT=  3500011 ScaDFX=  1.000000  1.000000  1.000000  1.000000
 FoFCou: FMM=F IPFlag=           0 FMFlag=      100000 FMFlg1=           0
         NFxFlg=           0 DoJE=T BraDBF=F KetDBF=T FulRan=T
         wScrn=  0.000000 ICntrl=     500 IOpCl=  0 I1Cent=   200000004 NGrid=           0
         NMat0=    1 NMatS0=      1 NMatT0=    0 NMatD0=    1 NMtDS0=    0 NMtDT0=    0
 Petite list used in FoFCou.
 Keep R1 ints in memory in canonical form, NReq=2706556670.
 Requested convergence on RMS density matrix=1.00D-08 within 128 cycles.
 Requested convergence on MAX density matrix=1.00D-06.
 Requested convergence on             energy=1.00D-06.
 No special actions if energy rises.
 EnCoef did     7 forward-backward iterations
 SCF Done:  E(RB3LYP) =  -678.947308728     A.U. after   23 cycles
            NFock= 23  Conv=0.76D-08     -V/T= 2.0041

 **********************************************************************

            Population analysis using the SCF density.

 **********************************************************************

 Orbital symmetries:
       Occupied  (A) (A) (A) (A) (A) (A) (A) (A) (A) (A) (A) (A)
                 (A) (A) (A) (A) (A) (A) (A) (A) (A) (A) (A) (A)
                 (A) (A) (A) (A) (A) (A) (A) (A) (A) (A) (A) (A)
                 (A) (A) (A) (A) (A) (A) (A) (A) (A) (A)
       Virtual   (A) (A) (A) (A) (A) (A) (A) (A) (A) (A) (A) (A)
                 (A) (A) (A) (A) (A) (A) (A) (A) (A) (A) (A) (A)
                 (A) (A) (A) (A) (A) (A) (A) (A) (A) (A) (A) (A)
                 (A) (A) (A) (A) (A) (A) (A) (A) (A) (A) (A) (A)
                 (A) (A) (A) (A) (A) (A) (A) (A) (A) (A) (A) (A)
                 (A) (A) (A) (A) (A) (A) (A) (A) (A) (A) (A) (A)
                 (A) (A) (A) (A) (A) (A) (A) (A) (A) (A) (A) (A)
                 (A) (A) (A) (A) (A) (A) (A) (A) (A) (A) (A) (A)
                 (A) (A) (A) (A) (A) (A) (A) (A) (A) (A) (A) (A)
                 (A) (A) (A) (A) (A) (A) (A) (A) (A) (A) (A) (A)
                 (A) (A) (A) (A) (A) (A) (A) (A) (A) (A) (A) (A)
                 (A) (A) (A) (A) (A) (A) (A) (A) (A) (A) (A) (A)
                 (A) (A) (A) (A) (A) (A) (A) (A) (A) (A) (A) (A)
                 (A) (A) (A) (A) (A) (A) (A) (A) (A) (A) (A) (A)
                 (A) (A) (A) (A) (A) (A) (A) (A) (A) (A) (A) (A)
                 (A) (A) (A) (A) (A) (A) (A) (A) (A) (A) (A) (A)
                 (A) (A) (A) (A) (A) (A) (A) (A) (A) (A) (A) (A)
                 (A) (A) (A) (A) (A) (A) (A) (A) (A) (A) (A) (A)
                 (A) (A) (A) (A) (A) (A) (A) (A) (A) (A) (A) (A)
                 (A) (A) (A) (A) (A) (A) (A) (A) (A) (A) (A) (A)
                 (A) (A) (A) (A) (A) (A) (A) (A) (A) (A) (A) (A)
                 (A) (A) (A) (A) (A) (A) (A) (A) (A) (A) (A) (A)
                 (A) (A) (A) (A) (A) (A) (A) (A) (A) (A) (A) (A)
                 (A) (A) (A) (A) (A) (A) (A) (A) (A) (A) (A) (A)
                 (A) (A) (A) (A) (A) (A) (A) (A) (A) (A) (A) (A)
                 (A) (A) (A) (A) (A) (A) (A) (A) (A) (A) (A) (A)
                 (A) (A) (A) (A) (A) (A) (A) (A) (A) (A) (A) (A)
                 (A) (A) (A) (A) (A) (A) (A) (A) (A) (A) (A) (A)
 The electronic state is 1-A.
 Alpha  occ. eigenvalues --  -66.11158 -14.46648 -14.43064 -10.26392 -10.26104
 Alpha  occ. eigenvalues --  -10.24884 -10.22516 -10.18116 -10.17797 -10.17644
 Alpha  occ. eigenvalues --   -5.28626  -3.64493  -3.64390  -3.64371  -1.03252
 Alpha  occ. eigenvalues --   -1.00147  -0.82848  -0.76798  -0.73573  -0.71706
 Alpha  occ. eigenvalues --   -0.70340  -0.70233  -0.65543  -0.61335  -0.58972
 Alpha  occ. eigenvalues --   -0.57922  -0.55947  -0.53191  -0.51738  -0.48183
 Alpha  occ. eigenvalues --   -0.46971  -0.46570  -0.44992  -0.44684  -0.43888
 Alpha  occ. eigenvalues --   -0.43457  -0.42434  -0.42012  -0.41803  -0.41131
 Alpha  occ. eigenvalues --   -0.39770  -0.38899  -0.34714  -0.32722  -0.32442
 Alpha  occ. eigenvalues --   -0.07865
 Alpha virt. eigenvalues --   -0.05528  -0.03629  -0.03335  -0.02044  -0.01132
 Alpha virt. eigenvalues --   -0.00789  -0.00121   0.00022   0.00502   0.01078
 Alpha virt. eigenvalues --    0.01417   0.01521   0.02115   0.02858   0.03394
 Alpha virt. eigenvalues --    0.03866   0.04080   0.04558   0.04872   0.05065
 Alpha virt. eigenvalues --    0.05505   0.05726   0.05812   0.05897   0.06609
 Alpha virt. eigenvalues --    0.06807   0.07024   0.07690   0.07906   0.08065
 Alpha virt. eigenvalues --    0.08427   0.08774   0.09264   0.09624   0.09857
 Alpha virt. eigenvalues --    0.09980   0.10782   0.11064   0.11156   0.11529
 Alpha virt. eigenvalues --    0.11642   0.11905   0.12484   0.12591   0.12930
 Alpha virt. eigenvalues --    0.13300   0.13744   0.13992   0.14169   0.14523
 Alpha virt. eigenvalues --    0.14778   0.14921   0.15046   0.15565   0.15765
 Alpha virt. eigenvalues --    0.15855   0.16218   0.16497   0.16632   0.17112
 Alpha virt. eigenvalues --    0.17402   0.17497   0.17920   0.18273   0.18766
 Alpha virt. eigenvalues --    0.19007   0.19868   0.20005   0.20183   0.20759
 Alpha virt. eigenvalues --    0.21126   0.21521   0.21793   0.22168   0.23084
 Alpha virt. eigenvalues --    0.23632   0.24647   0.24861   0.26047   0.26174
 Alpha virt. eigenvalues --    0.27188   0.27848   0.28317   0.28656   0.30396
 Alpha virt. eigenvalues --    0.30466   0.30782   0.31768   0.32343   0.33439
 Alpha virt. eigenvalues --    0.33899   0.34753   0.35644   0.36531   0.37667
 Alpha virt. eigenvalues --    0.38479   0.41635   0.42118   0.44131   0.45099
 Alpha virt. eigenvalues --    0.47224   0.48037   0.48882   0.49443   0.50888
 Alpha virt. eigenvalues --    0.51117   0.52015   0.52557   0.53933   0.54733
 Alpha virt. eigenvalues --    0.55692   0.56161   0.56830   0.57348   0.57720
 Alpha virt. eigenvalues --    0.59303   0.59405   0.60390   0.61638   0.62119
 Alpha virt. eigenvalues --    0.63040   0.63070   0.64276   0.64338   0.65709
 Alpha virt. eigenvalues --    0.66451   0.66741   0.66967   0.68179   0.68375
 Alpha virt. eigenvalues --    0.68984   0.69046   0.70115   0.70324   0.70736
 Alpha virt. eigenvalues --    0.71252   0.73181   0.74396   0.74679   0.75042
 Alpha virt. eigenvalues --    0.75260   0.77653   0.78999   0.79672   0.81035
 Alpha virt. eigenvalues --    0.83015   0.83149   0.84110   0.87501   0.89144
 Alpha virt. eigenvalues --    0.90925   0.93392   0.94037   0.94978   0.95621
 Alpha virt. eigenvalues --    0.97892   0.98722   1.01891   1.04320   1.06218
 Alpha virt. eigenvalues --    1.07894   1.09938   1.12617   1.13821   1.17597
 Alpha virt. eigenvalues --    1.21890   1.23028   1.23806   1.24401   1.24840
 Alpha virt. eigenvalues --    1.25822   1.28056   1.29479   1.32676   1.40059
 Alpha virt. eigenvalues --    1.41444   1.41599   1.42285   1.44103   1.44674
 Alpha virt. eigenvalues --    1.48150   1.48748   1.49811   1.51173   1.52384
 Alpha virt. eigenvalues --    1.52916   1.53483   1.53834   1.54380   1.55660
 Alpha virt. eigenvalues --    1.56137   1.56662   1.58426   1.59319   1.59715
 Alpha virt. eigenvalues --    1.60107   1.61849   1.62843   1.63975   1.64780
 Alpha virt. eigenvalues --    1.64979   1.66570   1.67054   1.69278   1.69948
 Alpha virt. eigenvalues --    1.70829   1.71295   1.72555   1.73212   1.73821
 Alpha virt. eigenvalues --    1.74732   1.76085   1.76781   1.78481   1.79290
 Alpha virt. eigenvalues --    1.80250   1.81407   1.82477   1.83494   1.84637
 Alpha virt. eigenvalues --    1.86524   1.88227   1.91029   1.93828   1.95925
 Alpha virt. eigenvalues --    1.97699   1.98832   2.00463   2.02816   2.05461
 Alpha virt. eigenvalues --    2.06999   2.08093   2.11943   2.12863   2.14654
 Alpha virt. eigenvalues --    2.15154   2.16469   2.17060   2.18412   2.19726
 Alpha virt. eigenvalues --    2.21099   2.22355   2.22964   2.24390   2.27910
 Alpha virt. eigenvalues --    2.29801   2.37239   2.39478   2.41011   2.41606
 Alpha virt. eigenvalues --    2.42471   2.44222   2.44418   2.45057   2.46220
 Alpha virt. eigenvalues --    2.47023   2.48200   2.48467   2.49471   2.50322
 Alpha virt. eigenvalues --    2.51881   2.52365   2.52587   2.53273   2.55159
 Alpha virt. eigenvalues --    2.57456   2.58557   2.63420   2.64641   2.65569
 Alpha virt. eigenvalues --    2.65925   2.66534   2.67111   2.67760   2.69147
 Alpha virt. eigenvalues --    2.70886   2.71323   2.72653   2.73386   2.74268
 Alpha virt. eigenvalues --    2.75898   2.77035   2.78648   2.81066   2.85894
 Alpha virt. eigenvalues --    2.87761   2.90267   2.93160   2.96380   2.98121
 Alpha virt. eigenvalues --    3.00238   3.01465   3.01656   3.03975   3.05273
 Alpha virt. eigenvalues --    3.09412   3.11244   3.22077   3.24956   3.25340
 Alpha virt. eigenvalues --    3.26539   3.40284   3.45621   3.52177   3.65560
 Alpha virt. eigenvalues --    3.67032   3.67658   3.68432   3.69880   3.71911
 Alpha virt. eigenvalues --    3.72030   3.72948   3.73873   3.79092   3.97238
 Alpha virt. eigenvalues --    4.18427   4.54825   4.55883   4.58807   4.59066
 Alpha virt. eigenvalues --    4.67446   4.69450   5.80858  11.51705  11.52327
 Alpha virt. eigenvalues --   11.55628  23.75037  23.76919  23.78620  23.83197
 Alpha virt. eigenvalues --   23.87533  23.88228  23.91527  35.43583  35.48396
 Alpha virt. eigenvalues --  141.24927
          Condensed to atoms (all electrons):
               1          2          3          4          5          6
     1  N    8.433029   1.647169  -0.384057   0.571685  -0.013155  -0.010365
     2  C    1.647169  12.112243  -1.372171   2.819479   0.047887  -0.140983
     3  C   -0.384057  -1.372171   6.493218  -0.994423   0.096047  -0.087928
     4  C    0.571685   2.819479  -0.994423  11.633519   0.861390  -1.083673
     5  N   -0.013155   0.047887   0.096047   0.861390   7.365799  -0.790761
     6  C   -0.010365  -0.140983  -0.087928  -1.083673  -0.790761   7.683010
     7  Si   0.024371   0.526484   0.060396   1.999159   1.186806  -1.629135
     8  C   -0.000036  -0.010137   0.004812  -0.049704  -0.029612  -0.080375
     9  C    0.000212   0.013067   0.014394   0.098477   0.170919  -0.367443
    10  C    0.000621   0.007418   0.022552   0.027516   0.104586  -0.241821
    11  H   -0.771547  -1.275249   0.265668  -0.360649   0.003743   0.007653
    12  H   -0.697385  -1.147448   0.242722  -0.700797  -0.006838   0.033568
    13  H   -0.622134  -1.077728   0.150740  -0.447784  -0.003602   0.022095
    14  H   -0.451926  -1.180495   0.163524  -0.476156  -0.006606   0.002325
    15  H   -0.326475  -0.744025   0.284168  -0.583978   0.000542   0.013698
    16  H   -0.019350  -0.342026   0.353425  -0.330301  -0.036836   0.062686
    17  H   -0.352403  -1.178105   0.503823  -1.042870  -0.125804   0.123783
    18  H   -0.334364  -0.915852   0.125795  -1.409165  -0.281865   0.264931
    19  H   -0.106859  -0.663623   0.175071  -0.607064  -0.114792   0.091675
    20  H   -0.043486  -0.384678   0.015322  -1.539181  -0.379704   0.634163
    21  H   -0.064443  -0.470943  -0.039339  -1.337839  -0.297554   0.534551
    22  H   -0.018989  -0.400235   0.013775  -0.678775  -0.245632   0.453603
    23  H   -0.008897  -0.188007   0.064226  -0.464948  -0.146355   0.466716
    24  H   -0.000024  -0.005807  -0.001505  -0.019096  -0.015851   0.028235
    25  H   -0.000006  -0.001259  -0.001089  -0.007727  -0.011734   0.047321
    26  H   -0.000005  -0.004798  -0.000480  -0.019284  -0.016192   0.025559
    27  H   -0.001372  -0.021596   0.002730  -0.171003  -0.142651   0.146390
    28  H   -0.000050  -0.002574  -0.001403  -0.030398  -0.037787   0.095862
    29  H   -0.000358  -0.015574   0.000999  -0.122563  -0.080771   0.155752
    30  H   -0.001301  -0.032539  -0.027244  -0.107790  -0.104028   0.166699
    31  H   -0.003567  -0.038706  -0.031217  -0.185817  -0.156419   0.172806
    32  H   -0.000124  -0.004755  -0.008056  -0.030624  -0.045318   0.101460
               7          8          9         10         11         12
     1  N    0.024371  -0.000036   0.000212   0.000621  -0.771547  -0.697385
     2  C    0.526484  -0.010137   0.013067   0.007418  -1.275249  -1.147448
     3  C    0.060396   0.004812   0.014394   0.022552   0.265668   0.242722
     4  C    1.999159  -0.049704   0.098477   0.027516  -0.360649  -0.700797
     5  N    1.186806  -0.029612   0.170919   0.104586   0.003743  -0.006838
     6  C   -1.629135  -0.080375  -0.367443  -0.241821   0.007653   0.033568
     7  Si  20.873912   0.011240   0.355766  -0.116349  -0.028000  -0.070910
     8  C    0.011240   5.741378  -0.196650  -0.201654   0.000300   0.000787
     9  C    0.355766  -0.196650   6.152654  -0.043031  -0.000469  -0.002344
    10  C   -0.116349  -0.201654  -0.043031   6.190960  -0.000395  -0.001284
    11  H   -0.028000   0.000300  -0.000469  -0.000395   1.179885   0.517649
    12  H   -0.070910   0.000787  -0.002344  -0.001284   0.517649   1.071917
    13  H   -0.055245   0.000621  -0.000725  -0.002137   0.490803   0.439943
    14  H   -0.098678   0.002106  -0.001257  -0.001182   0.373907   0.257376
    15  H   -0.089052   0.001675  -0.002818  -0.000459   0.255194   0.224020
    16  H   -0.109016   0.000850  -0.003645  -0.009196   0.034492   0.038533
    17  H   -0.376603   0.008802  -0.010674  -0.025449   0.190800   0.255433
    18  H   -0.510813   0.010410  -0.034432  -0.008693   0.183045   0.377751
    19  H   -0.352982   0.008320  -0.028596   0.000067   0.082563   0.141289
    20  H   -1.413569   0.031149  -0.200448  -0.023522   0.033424   0.094738
    21  H   -1.274470   0.027289  -0.059349  -0.083658   0.042340   0.100725
    22  H   -1.197937   0.044548  -0.017035   0.018992   0.024180   0.039435
    23  H   -0.710661   0.024890  -0.043246   0.016713   0.011087   0.020985
    24  H   -0.226267   0.361787   0.017059  -0.015226   0.000161   0.000326
    25  H   -0.206255   0.380040  -0.017560  -0.007943   0.000030   0.000092
    26  H   -0.233080   0.382170  -0.026585   0.024461   0.000110   0.000270
    27  H   -0.572390   0.034328   0.227180  -0.021918   0.001365   0.005401
    28  H   -0.374891   0.003274   0.284587  -0.007130   0.000102   0.000461
    29  H   -0.619978   0.003429   0.262217   0.046262   0.000702   0.002462
    30  H   -0.659723   0.010602   0.015222   0.286370   0.001567   0.003763
    31  H   -0.765437   0.027112  -0.051050   0.281778   0.002846   0.008669
    32  H   -0.432283   0.010074  -0.026654   0.315500   0.000194   0.000692
              13         14         15         16         17         18
     1  N   -0.622134  -0.451926  -0.326475  -0.019350  -0.352403  -0.334364
     2  C   -1.077728  -1.180495  -0.744025  -0.342026  -1.178105  -0.915852
     3  C    0.150740   0.163524   0.284168   0.353425   0.503823   0.125795
     4  C   -0.447784  -0.476156  -0.583978  -0.330301  -1.042870  -1.409165
     5  N   -0.003602  -0.006606   0.000542  -0.036836  -0.125804  -0.281865
     6  C    0.022095   0.002325   0.013698   0.062686   0.123783   0.264931
     7  Si  -0.055245  -0.098678  -0.089052  -0.109016  -0.376603  -0.510813
     8  C    0.000621   0.002106   0.001675   0.000850   0.008802   0.010410
     9  C   -0.000725  -0.001257  -0.002818  -0.003645  -0.010674  -0.034432
    10  C   -0.002137  -0.001182  -0.000459  -0.009196  -0.025449  -0.008693
    11  H    0.490803   0.373907   0.255194   0.034492   0.190800   0.183045
    12  H    0.439943   0.257376   0.224020   0.038533   0.255433   0.377751
    13  H    0.976424   0.313768   0.170249   0.044441   0.308199   0.218579
    14  H    0.313768   1.007834   0.264569   0.090571   0.277745   0.172440
    15  H    0.170249   0.264569   0.748547   0.040483   0.175270   0.184540
    16  H    0.044441   0.090571   0.040483   0.662147   0.070593   0.085619
    17  H    0.308199   0.277745   0.175270   0.070593   0.974823   0.335176
    18  H    0.218579   0.172440   0.184540   0.085619   0.335176   1.217714
    19  H    0.075205   0.113209   0.159816   0.054786   0.163781   0.292258
    20  H    0.050871   0.058629   0.074182   0.059879   0.213172   0.487676
    21  H    0.084542   0.086654   0.069309   0.077518   0.328652   0.408984
    22  H    0.039274   0.092610   0.066624   0.077304   0.195840   0.163828
    23  H    0.013380   0.037138   0.039438   0.029361   0.070450   0.107631
    24  H    0.000347   0.001440   0.000949   0.002117   0.004975   0.003485
    25  H    0.000074   0.000259   0.000236   0.000760   0.001524   0.001472
    26  H    0.000185   0.000859   0.000916   0.000636   0.002957   0.003200
    27  H    0.002576   0.003210   0.004580   0.003862   0.019235   0.055092
    28  H    0.000232   0.000403   0.000564   0.000826   0.003406   0.008677
    29  H    0.001067   0.002299   0.003908   0.003660   0.010569   0.031068
    30  H    0.004896   0.007475   0.003962   0.011086   0.041409   0.026968
    31  H    0.008447   0.008034   0.005851   0.010312   0.057491   0.065846
    32  H    0.000695   0.000934   0.000660   0.001637   0.009287   0.008521
              19         20         21         22         23         24
     1  N   -0.106859  -0.043486  -0.064443  -0.018989  -0.008897  -0.000024
     2  C   -0.663623  -0.384678  -0.470943  -0.400235  -0.188007  -0.005807
     3  C    0.175071   0.015322  -0.039339   0.013775   0.064226  -0.001505
     4  C   -0.607064  -1.539181  -1.337839  -0.678775  -0.464948  -0.019096
     5  N   -0.114792  -0.379704  -0.297554  -0.245632  -0.146355  -0.015851
     6  C    0.091675   0.634163   0.534551   0.453603   0.466716   0.028235
     7  Si  -0.352982  -1.413569  -1.274470  -1.197937  -0.710661  -0.226267
     8  C    0.008320   0.031149   0.027289   0.044548   0.024890   0.361787
     9  C   -0.028596  -0.200448  -0.059349  -0.017035  -0.043246   0.017059
    10  C    0.000067  -0.023522  -0.083658   0.018992   0.016713  -0.015226
    11  H    0.082563   0.033424   0.042340   0.024180   0.011087   0.000161
    12  H    0.141289   0.094738   0.100725   0.039435   0.020985   0.000326
    13  H    0.075205   0.050871   0.084542   0.039274   0.013380   0.000347
    14  H    0.113209   0.058629   0.086654   0.092610   0.037138   0.001440
    15  H    0.159816   0.074182   0.069309   0.066624   0.039438   0.000949
    16  H    0.054786   0.059879   0.077518   0.077304   0.029361   0.002117
    17  H    0.163781   0.213172   0.328652   0.195840   0.070450   0.004975
    18  H    0.292258   0.487676   0.408984   0.163828   0.107631   0.003485
    19  H    0.738101   0.280575   0.187925   0.137786   0.107924   0.003811
    20  H    0.280575   1.314300   0.588644   0.279528   0.204885   0.014968
    21  H    0.187925   0.588644   1.129667   0.308792   0.149809   0.016991
    22  H    0.137786   0.279528   0.308792   0.926261   0.184352   0.032322
    23  H    0.107924   0.204885   0.149809   0.184352   0.615096   0.018596
    24  H    0.003811   0.014968   0.016991   0.032322   0.018596   0.578236
    25  H    0.001686   0.010605   0.008417   0.013641   0.010049  -0.011417
    26  H    0.005535   0.019317   0.010968   0.033696   0.017999  -0.018538
    27  H    0.033406   0.204437   0.106648   0.057636   0.051937   0.004281
    28  H    0.006403   0.055571   0.030481   0.017524   0.022672   0.007756
    29  H    0.028917   0.141476   0.057432   0.053025   0.061341   0.013423
    30  H    0.014634   0.076136   0.130431   0.098031   0.034620   0.012749
    31  H    0.026127   0.158945   0.202959   0.104478   0.042674   0.014662
    32  H    0.004797   0.045838   0.050150   0.039841   0.011884   0.017218
              25         26         27         28         29         30
     1  N   -0.000006  -0.000005  -0.001372  -0.000050  -0.000358  -0.001301
     2  C   -0.001259  -0.004798  -0.021596  -0.002574  -0.015574  -0.032539
     3  C   -0.001089  -0.000480   0.002730  -0.001403   0.000999  -0.027244
     4  C   -0.007727  -0.019284  -0.171003  -0.030398  -0.122563  -0.107790
     5  N   -0.011734  -0.016192  -0.142651  -0.037787  -0.080771  -0.104028
     6  C    0.047321   0.025559   0.146390   0.095862   0.155752   0.166699
     7  Si  -0.206255  -0.233080  -0.572390  -0.374891  -0.619978  -0.659723
     8  C    0.380040   0.382170   0.034328   0.003274   0.003429   0.010602
     9  C   -0.017560  -0.026585   0.227180   0.284587   0.262217   0.015222
    10  C   -0.007943   0.024461  -0.021918  -0.007130   0.046262   0.286370
    11  H    0.000030   0.000110   0.001365   0.000102   0.000702   0.001567
    12  H    0.000092   0.000270   0.005401   0.000461   0.002462   0.003763
    13  H    0.000074   0.000185   0.002576   0.000232   0.001067   0.004896
    14  H    0.000259   0.000859   0.003210   0.000403   0.002299   0.007475
    15  H    0.000236   0.000916   0.004580   0.000564   0.003908   0.003962
    16  H    0.000760   0.000636   0.003862   0.000826   0.003660   0.011086
    17  H    0.001524   0.002957   0.019235   0.003406   0.010569   0.041409
    18  H    0.001472   0.003200   0.055092   0.008677   0.031068   0.026968
    19  H    0.001686   0.005535   0.033406   0.006403   0.028917   0.014634
    20  H    0.010605   0.019317   0.204437   0.055571   0.141476   0.076136
    21  H    0.008417   0.010968   0.106648   0.030481   0.057432   0.130431
    22  H    0.013641   0.033696   0.057636   0.017524   0.053025   0.098031
    23  H    0.010049   0.017999   0.051937   0.022672   0.061341   0.034620
    24  H   -0.011417  -0.018538   0.004281   0.007756   0.013423   0.012749
    25  H    0.550013  -0.010877   0.009828   0.005617   0.017406   0.020067
    26  H   -0.010877   0.579775   0.011271   0.014440   0.009259   0.013746
    27  H    0.009828   0.011271   0.689115   0.037049   0.047252   0.033066
    28  H    0.005617   0.014440   0.037049   0.602512   0.033390   0.020048
    29  H    0.017406   0.009259   0.047252   0.033390   0.673133   0.016330
    30  H    0.020067   0.013746   0.033066   0.020048   0.016330   0.684993
    31  H    0.011075   0.005048   0.056032   0.036415   0.038807   0.067957
    32  H    0.005387   0.008106   0.030689   0.014009   0.020224   0.038679
              31         32
     1  N   -0.003567  -0.000124
     2  C   -0.038706  -0.004755
     3  C   -0.031217  -0.008056
     4  C   -0.185817  -0.030624
     5  N   -0.156419  -0.045318
     6  C    0.172806   0.101460
     7  Si  -0.765437  -0.432283
     8  C    0.027112   0.010074
     9  C   -0.051050  -0.026654
    10  C    0.281778   0.315500
    11  H    0.002846   0.000194
    12  H    0.008669   0.000692
    13  H    0.008447   0.000695
    14  H    0.008034   0.000934
    15  H    0.005851   0.000660
    16  H    0.010312   0.001637
    17  H    0.057491   0.009287
    18  H    0.065846   0.008521
    19  H    0.026127   0.004797
    20  H    0.158945   0.045838
    21  H    0.202959   0.050150
    22  H    0.104478   0.039841
    23  H    0.042674   0.011884
    24  H    0.014662   0.017218
    25  H    0.011075   0.005387
    26  H    0.005048   0.008106
    27  H    0.056032   0.030689
    28  H    0.036415   0.014009
    29  H    0.038807   0.020224
    30  H    0.067957   0.038679
    31  H    0.738331   0.055778
    32  H    0.055778   0.608104
 Mulliken charges:
               1
     1  N    0.555592
     2  C    0.445567
     3  C   -0.104493
     4  C    0.790383
     5  N    0.252148
     6  C   -0.902058
     7  Si   1.085589
     8  C   -0.563825
     9  C   -0.477742
    10  C   -0.532748
    11  H   -0.267503
    12  H   -0.252000
    13  H   -0.208298
    14  H   -0.123018
    15  H   -0.047142
    16  H    0.032788
    17  H   -0.235285
    18  H   -0.345521
    19  H   -0.061747
    20  H   -0.163841
    21  H   -0.112281
    22  H    0.041681
    23  H    0.126261
    24  H    0.157839
    25  H    0.180270
    26  H    0.159356
    27  H    0.052335
    28  H    0.151953
    29  H    0.103436
    30  H    0.091117
    31  H    0.023731
    32  H    0.147456
 Sum of Mulliken charges =   0.00000
 Mulliken charges with hydrogens summed into heavy atoms:
               1
     1  N   -0.172209
     2  C    0.275407
     3  C   -0.306990
     4  C    0.383115
     5  N   -0.023974
     6  C   -0.734116
     7  Si   1.085589
     8  C   -0.066360
     9  C   -0.170017
    10  C   -0.270444
 Electronic spatial extent (au):  <R**2>=           3554.2604
 Charge=              0.0000 electrons
 Dipole moment (field-independent basis, Debye):
    X=             -6.1717    Y=             -3.6183    Z=             -2.9586  Tot=              7.7418
 Quadrupole moment (field-independent basis, Debye-Ang):
   XX=           -114.6725   YY=           -100.7899   ZZ=            -99.1259
   XY=             -7.8048   XZ=             -7.5163   YZ=              0.2814
 Traceless Quadrupole moment (field-independent basis, Debye-Ang):
   XX=             -9.8098   YY=              4.0729   ZZ=              5.7369
   XY=             -7.8048   XZ=             -7.5163   YZ=              0.2814
 Octapole moment (field-independent basis, Debye-Ang**2):
  XXX=           -310.1020  YYY=            -53.9883  ZZZ=            -38.8120  XYY=            -61.6463
  XXY=            -33.7871  XXZ=            -26.7397  XZZ=            -60.5659  YZZ=            -15.9629
  YYZ=             -8.3620  XYZ=              2.5561
 Hexadecapole moment (field-independent basis, Debye-Ang**3):
 XXXX=          -6438.8176 YYYY=           -836.3717 ZZZZ=           -731.6703 XXXY=           -134.9865
 XXXZ=           -165.3192 YYYX=            -86.6462 YYYZ=             -2.5489 ZZZX=            -76.9260
 ZZZY=              0.7815 XXYY=          -1156.2053 XXZZ=          -1106.5114 YYZZ=           -258.1839
 XXYZ=             23.8893 YYXZ=            -41.2364 ZZXY=            -24.1624
 N-N= 6.670512695195D+02 E-N=-2.921260003392D+03  KE= 6.761456725791D+02

 **********************************************************************

            Electrostatic Properties Using The SCF Density

 **********************************************************************

       Atomic Center    1 is at   4.932825  0.209187  0.349995
       Atomic Center    2 is at   3.961273 -0.680592 -0.383021
       Atomic Center    3 is at   2.519462 -0.513487  0.148313
       Atomic Center    4 is at   1.748794  0.700920 -0.405434
       Atomic Center    5 is at   0.290035  0.672698  0.020057
       Atomic Center    6 is at  -0.590731 -0.425889 -0.512435
       Atomic Center    7 is at  -2.370594 -0.089003  0.018702
       Atomic Center    8 is at  -3.486524 -1.447140 -0.652887
       Atomic Center    9 is at  -2.922108  1.577651 -0.658918
       Atomic Center   10 is at  -2.460330 -0.068038  1.898518
       Atomic Center   11 is at   5.896565  0.055140 -0.023375
       Atomic Center   12 is at   4.659514  1.208297  0.211614
       Atomic Center   13 is at   4.911675 -0.019154  1.369512
       Atomic Center   14 is at   4.302235 -1.731887 -0.229738
       Atomic Center   15 is at   4.009694 -0.462540 -1.473957
       Atomic Center   16 is at   1.968013 -1.438379 -0.145929
       Atomic Center   17 is at   2.524276 -0.486566  1.263405
       Atomic Center   18 is at   2.212171  1.638811 -0.020970
       Atomic Center   19 is at   1.797999  0.726277 -1.518335
       Atomic Center   20 is at  -0.132398  1.582567 -0.277053
       Atomic Center   21 is at   0.263376  0.628699  1.064658
       Atomic Center   22 is at  -0.275816 -1.413331 -0.108556
       Atomic Center   23 is at  -0.537123 -0.447275 -1.624496
       Atomic Center   24 is at  -3.139560 -2.420952 -0.242060
       Atomic Center   25 is at  -4.529628 -1.235862 -0.329247
       Atomic Center   26 is at  -3.413718 -1.443551 -1.762895
       Atomic Center   27 is at  -2.257453  2.365818 -0.241421
       Atomic Center   28 is at  -3.975558  1.751111 -0.346573
       Atomic Center   29 is at  -2.843432  1.548127 -1.768103
       Atomic Center   30 is at  -2.118576 -1.056974  2.276238
       Atomic Center   31 is at  -1.797762  0.742969  2.273568
       Atomic Center   32 is at  -3.515197  0.120943  2.196715
 -----------------------------------------------------------------

              Electrostatic Properties (Atomic Units)

 -----------------------------------------------------------------
    Center     Electric         -------- Electric Field --------
               Potential          X             Y             Z
 -----------------------------------------------------------------
    1 Atom    -18.290924      0.001413      0.002350      0.001279
    2 Atom    -14.680363     -0.008372     -0.007958     -0.005848
    3 Atom    -14.720293     -0.000802     -0.001867      0.002923
    4 Atom    -14.686226      0.013521      0.001326     -0.003950
    5 Atom    -18.246104      0.002412     -0.000825     -0.001311
    6 Atom    -14.697789     -0.017435     -0.006757     -0.001654
    7 Atom    -49.274095     -0.006733      0.001534      0.002520
    8 Atom    -14.764219      0.005646      0.006035      0.002847
    9 Atom    -14.768278      0.002719     -0.007719      0.002739
   10 Atom    -14.769699      0.000740     -0.000337     -0.008538
   11 Atom     -0.966951      0.023857     -0.000842     -0.005589
   12 Atom     -0.967314     -0.001387      0.023315      0.000404
   13 Atom     -0.963943      0.002444     -0.001504      0.018963
   14 Atom     -1.064528      0.002478     -0.001773      0.002260
   15 Atom     -1.061353      0.004027      0.001751     -0.001688
   16 Atom     -1.072894     -0.001723     -0.005810     -0.001112
   17 Atom     -1.076541     -0.000293     -0.001333      0.001395
   18 Atom     -1.065815     -0.002088      0.009651      0.003351
   19 Atom     -1.059844     -0.004146      0.001841     -0.001840
   20 Atom     -0.943174     -0.002708      0.014939     -0.000582
   21 Atom     -0.942360      0.001322      0.004892      0.015327
   22 Atom     -1.045917      0.006543     -0.002057      0.000315
   23 Atom     -1.046023      0.005885      0.000056     -0.003242
   24 Atom     -1.083814     -0.003926     -0.007900     -0.001297
   25 Atom     -1.081499     -0.005348     -0.003072     -0.000984
   26 Atom     -1.083834     -0.004750     -0.005248     -0.005591
   27 Atom     -1.084421     -0.001602      0.010411     -0.001468
   28 Atom     -1.083887     -0.005261      0.005598     -0.000336
   29 Atom     -1.085936     -0.001994      0.006724     -0.005682
   30 Atom     -1.087451      0.000622     -0.002447      0.008606
   31 Atom     -1.086507      0.000707      0.002759      0.010086
   32 Atom     -1.085505     -0.003844      0.001171      0.006469
 -----------------------------------------------------------------
 -----------------------------------------------------
    Center         ---- Electric Field Gradient ----
                     XX            YY            ZZ
 -----------------------------------------------------
    1 Atom     -814.312760   -814.261171   -814.300759
    2 Atom     -500.449324   -500.304857   -500.244467
    3 Atom     -500.421550   -500.357821   -500.260916
    4 Atom     -501.071766   -500.424583   -500.538873
    5 Atom     -812.927632   -812.857834   -812.812355
    6 Atom     -500.409940   -500.687403   -500.461048
    7 Atom    -7158.222885  -7157.959112  -7157.968993
    8 Atom     -500.282369   -500.240637   -500.311252
    9 Atom     -500.429124   -500.291456   -500.411609
   10 Atom     -500.423673   -500.422887   -500.245905
   11 Atom       -1.887241     -1.519010     -1.566639
   12 Atom       -1.534315     -1.897277     -1.508782
   13 Atom       -1.507551     -1.522707     -1.917578
   14 Atom       -1.690567     -1.988102     -1.650818
   15 Atom       -1.663232     -1.666300     -2.023595
   16 Atom       -1.765177     -1.930963     -1.681951
   17 Atom       -1.658482     -1.643806     -2.019094
   18 Atom       -1.704376     -1.890845     -1.665859
   19 Atom       -1.674177     -1.648523     -2.036533
   20 Atom       -1.624518     -1.869115     -1.571370
   21 Atom       -1.545229     -1.535404     -1.964427
   22 Atom       -1.669387     -1.951179     -1.684710
   23 Atom       -1.631657     -1.638336     -2.025599
   24 Atom       -1.665486     -1.940324     -1.681191
   25 Atom       -1.979624     -1.631148     -1.653580
   26 Atom       -1.627673     -1.622909     -2.038344
   27 Atom       -1.775550     -1.825140     -1.678973
   28 Atom       -1.987657     -1.622492     -1.649976
   29 Atom       -1.627855     -1.619451     -2.034515
   30 Atom       -1.664279     -1.950001     -1.665217
   31 Atom       -1.772339     -1.840180     -1.664266
   32 Atom       -1.990818     -1.630725     -1.641595
 -----------------------------------------------------
 -----------------------------------------------------
    Center         ---- Electric Field Gradient ----
                     XY            XZ            YZ
 -----------------------------------------------------
    1 Atom       -0.012662     -0.028082     -0.013929
    2 Atom       -0.229818     -0.159754     -0.159053
    3 Atom        0.055036      0.011083      0.021775
    4 Atom        0.025177      0.170490      0.035339
    5 Atom       -0.126522     -0.072138      0.046479
    6 Atom       -0.316822     -0.205044     -0.125554
    7 Atom        0.068354      0.091467     -0.017463
    8 Atom        0.070442      0.035892      0.048264
    9 Atom       -0.042061      0.011461     -0.058839
   10 Atom       -0.003736      0.001345      0.005318
   11 Atom        0.055272      0.142169     -0.025043
   12 Atom        0.100915     -0.016830      0.050756
   13 Atom       -0.005032      0.004198      0.088738
   14 Atom        0.100844     -0.020505      0.043795
   15 Atom       -0.010467      0.012923      0.070133
   16 Atom       -0.154606     -0.049478     -0.086096
   17 Atom        0.005570      0.000315     -0.005839
   18 Atom       -0.119016     -0.043988     -0.107588
   19 Atom        0.003782      0.015213      0.009956
   20 Atom        0.150324     -0.048045      0.103969
   21 Atom       -0.003249      0.016569      0.015785
   22 Atom        0.092795     -0.051630      0.123851
   23 Atom       -0.012695      0.017250     -0.009453
   24 Atom        0.115818     -0.045678      0.135329
   25 Atom        0.076860      0.114305     -0.021546
   26 Atom        0.002847      0.028637      0.002474
   27 Atom       -0.173456     -0.091300     -0.111522
   28 Atom        0.058956      0.111230     -0.020072
   29 Atom       -0.000512      0.029896     -0.012813
   30 Atom        0.112735     -0.042436      0.124906
   31 Atom       -0.178190     -0.079829     -0.101295
   32 Atom        0.067048      0.104231     -0.018599
 -----------------------------------------------------
 -----------------------------------------------------
    Center         ---- Electric Field Gradient ----
                   ----       Eigenvalues       ----
 -----------------------------------------------------
    1 Atom     -814.339880   -814.278397   -814.256413
    2 Atom     -500.722376   -500.168753   -500.107519
    3 Atom     -500.453289   -500.334213   -500.252786
    4 Atom     -501.121935   -500.508853   -500.404434
    5 Atom     -813.028438   -812.867995   -812.701388
    6 Atom     -500.986723   -500.413268   -500.158399
    7 Atom    -7158.268436  -7157.945909  -7157.936644
    8 Atom     -500.335759   -500.334955   -500.163543
    9 Atom     -500.443370   -500.432240   -500.256580
   10 Atom     -500.427152   -500.419576   -500.245737
   11 Atom       -1.949719     -1.515503     -1.507668
   12 Atom       -1.930203     -1.509750     -1.500421
   13 Atom       -1.936665     -1.510052     -1.501119
   14 Atom       -2.025187     -1.662171     -1.642128
   15 Atom       -2.037441     -1.667073     -1.648612
   16 Atom       -2.050260     -1.672808     -1.655023
   17 Atom       -2.019186     -1.660343     -1.641853
   18 Atom       -1.990286     -1.648502     -1.622292
   19 Atom       -2.037417     -1.674217     -1.647599
   20 Atom       -1.973243     -1.553129     -1.538630
   21 Atom       -1.965669     -1.545235     -1.534157
   22 Atom       -2.030565     -1.650970     -1.623741
   23 Atom       -2.026556     -1.648100     -1.620936
   24 Atom       -2.039523     -1.627054     -1.620425
   25 Atom       -2.031600     -1.619152     -1.613600
   26 Atom       -2.040344     -1.627610     -1.620972
   27 Atom       -2.034029     -1.627251     -1.618382
   28 Atom       -2.030497     -1.617721     -1.611907
   29 Atom       -2.037090     -1.625971     -1.618760
   30 Atom       -2.036051     -1.625250     -1.618197
   31 Atom       -2.032764     -1.626088     -1.617932
   32 Atom       -2.031637     -1.618651     -1.612850
 -----------------------------------------------------
 -----------------------------------------------------
    Center         ---- Electric Field Gradient ----
                       ( tensor representation )
                   3XX-RR        3YY-RR        3ZZ-RR
 -----------------------------------------------------
    1 Atom       -0.021197      0.030393     -0.009196
    2 Atom       -0.116441      0.028025      0.088416
    3 Atom       -0.074787     -0.011059      0.085846
    4 Atom       -0.393359      0.253824      0.139534
    5 Atom       -0.061692      0.008106      0.053586
    6 Atom        0.109524     -0.167939      0.058416
    7 Atom       -0.172555      0.091218      0.081337
    8 Atom       -0.004283      0.037449     -0.033166
    9 Atom       -0.051728      0.085940     -0.034213
   10 Atom       -0.059518     -0.058732      0.118250
   11 Atom       -0.229611      0.138620      0.090991
   12 Atom        0.112476     -0.250486      0.138010
   13 Atom        0.141727      0.126572     -0.268299
   14 Atom        0.085929     -0.211607      0.125678
   15 Atom        0.121144      0.118075     -0.239219
   16 Atom        0.027520     -0.138266      0.110746
   17 Atom        0.115312      0.129988     -0.245300
   18 Atom        0.049317     -0.137152      0.087835
   19 Atom        0.112234      0.137888     -0.250122
   20 Atom        0.063817     -0.180781      0.116964
   21 Atom        0.136458      0.146283     -0.282740
   22 Atom        0.099038     -0.182753      0.083715
   23 Atom        0.133540      0.126861     -0.260401
   24 Atom        0.096848     -0.177990      0.081143
   25 Atom       -0.224840      0.123636      0.101204
   26 Atom        0.135302      0.140066     -0.275369
   27 Atom       -0.015662     -0.065253      0.080915
   28 Atom       -0.234282      0.130883      0.103399
   29 Atom        0.132752      0.141156     -0.273908
   30 Atom        0.095553     -0.190169      0.094616
   31 Atom       -0.013411     -0.081252      0.094662
   32 Atom       -0.236439      0.123655      0.112784
 -----------------------------------------------------
 -----------------------------------------------------
    Center         ---- Electric Field Gradient ----
                       ( tensor representation )
                   ----       Eigenvalues       ----
 -----------------------------------------------------
    1 Atom       -0.048317      0.013166      0.035151
    2 Atom       -0.389494      0.164130      0.225364
    3 Atom       -0.106526      0.012550      0.093976
    4 Atom       -0.443527      0.169554      0.273973
    5 Atom       -0.162498     -0.002055      0.164552
    6 Atom       -0.467260      0.106196      0.361064
    7 Atom       -0.218106      0.104421      0.113686
    8 Atom       -0.057673     -0.056869      0.114543
    9 Atom       -0.065973     -0.054843      0.120817
   10 Atom       -0.062997     -0.055421      0.118418
   11 Atom       -0.292089      0.142127      0.149962
   12 Atom       -0.283412      0.137042      0.146370
   13 Atom       -0.287386      0.139227      0.148159
   14 Atom       -0.248692      0.114324      0.134367
   15 Atom       -0.253066      0.117302      0.135764
   16 Atom       -0.257563      0.119889      0.137674
   17 Atom       -0.245392      0.113451      0.131941
   18 Atom       -0.236593      0.105191      0.131401
   19 Atom       -0.251006      0.112194      0.138812
   20 Atom       -0.284909      0.135205      0.149704
   21 Atom       -0.283982      0.136452      0.147530
   22 Atom       -0.262140      0.117455      0.144685
   23 Atom       -0.261359      0.117098      0.144261
   24 Atom       -0.277189      0.135280      0.141909
   25 Atom       -0.276816      0.135632      0.141184
   26 Atom       -0.277368      0.135365      0.142003
   27 Atom       -0.274142      0.132636      0.141506
   28 Atom       -0.277121      0.135654      0.141468
   29 Atom       -0.276483      0.134636      0.141847
   30 Atom       -0.276218      0.134583      0.141636
   31 Atom       -0.273836      0.132840      0.140996
   32 Atom       -0.277258      0.135729      0.141529
 -----------------------------------------------------
 Calling FoFJK, ICntrl=      2127 FMM=F ISym2X=0 I1Cent= 0 IOpClX= 0 NMat=1 NMatS=1 NMatT=0.
 ***** Axes restored to original set *****
 -------------------------------------------------------------------
 Center     Atomic                   Forces (Hartrees/Bohr)
 Number     Number              X              Y              Z
 -------------------------------------------------------------------
      1        7           0.005782036   -0.010209333    0.004308944
      2        6           0.010635222   -0.011548816    0.002620030
      3        6           0.007537829   -0.008056375   -0.008496012
      4        6          -0.013519540   -0.006732541    0.001652778
      5        7          -0.014158207   -0.004360348    0.001715511
      6        6          -0.002824340   -0.015493349    0.001405944
      7       14           0.025917670    0.002607000    0.000150424
      8        6          -0.006154124   -0.001846834   -0.000049613
      9        6          -0.004008062   -0.002404813   -0.000317342
     10        6          -0.003922638   -0.002138346    0.000488801
     11        1          -0.006191632    0.002662244   -0.001173161
     12        1          -0.002999307    0.005998659   -0.000072465
     13        1          -0.002842210    0.002467228    0.000514055
     14        1           0.002028613    0.012077911    0.008357516
     15        1          -0.000315239    0.007392202   -0.014019026
     16        1          -0.006027218    0.008888111    0.000690599
     17        1          -0.002575555   -0.009827878    0.012052592
     18        1           0.008849230   -0.006160214    0.001045060
     19        1           0.007916073    0.009229689   -0.010926298
     20        1          -0.003466986    0.001456300   -0.005765276
     21        1          -0.002715100    0.002921348    0.005846344
     22        1          -0.003350219    0.008470749    0.011843045
     23        1          -0.002221106    0.008549507   -0.012147265
     24        1           0.006852675    0.001459440    0.011566919
     25        1          -0.011323340   -0.007368287   -0.000543284
     26        1           0.007716548    0.001620804   -0.011000853
     27        1           0.009662495   -0.006514150    0.007230504
     28        1          -0.011631952    0.000156334    0.003282263
     29        1           0.004592504    0.011588810   -0.005047753
     30        1           0.004139185    0.011452309    0.005713936
     31        1           0.010120905   -0.006469672   -0.006651618
     32        1          -0.011504208    0.000132311   -0.004275301
 -------------------------------------------------------------------
 Cartesian Forces:  Max     0.025917670 RMS     0.007586470

 GradGradGradGradGradGradGradGradGradGradGradGradGradGradGradGradGradGrad
 Berny optimization.
 FormGI is forming the generalized inverse of G from B-inverse, IUseBI=4.
 Internal  Forces:  Max     0.021127086 RMS     0.005771203
 Search for a local minimum.
 Step number   1 out of a maximum of  182
 All quantities printed in internal units (Hartrees-Bohrs-Radians)
 Mixed Optimization -- RFO/linear search
 Second derivative matrix not updated -- first step.
 ITU=  0
     Eigenvalues ---    0.00230   0.00230   0.00230   0.00268   0.00298
     Eigenvalues ---    0.00930   0.01005   0.01009   0.01010   0.03009
     Eigenvalues ---    0.03158   0.03556   0.03586   0.04186   0.04698
     Eigenvalues ---    0.04717   0.04797   0.04803   0.05138   0.05304
     Eigenvalues ---    0.05360   0.05398   0.05741   0.05760   0.06405
     Eigenvalues ---    0.06408   0.06417   0.06417   0.06419   0.06420
     Eigenvalues ---    0.07786   0.08020   0.08093   0.08709   0.09171
     Eigenvalues ---    0.11723   0.11983   0.12034   0.12508   0.12798
     Eigenvalues ---    0.14694   0.14724   0.16000   0.16000   0.16000
     Eigenvalues ---    0.16000   0.16000   0.16000   0.16000   0.16000
     Eigenvalues ---    0.16000   0.16000   0.16000   0.16000   0.20267
     Eigenvalues ---    0.20588   0.20605   0.20608   0.21928   0.21929
[...]
    27  H    0.022303   0.014471
    28  H    0.016317   0.001449
    29  H    0.014266   0.008078
    30  H    0.032933   0.002992
    31  H    0.611552   0.002269
    32  H    0.002269   0.608496
 Mulliken charges:
               1
     1  N    0.635179
     2  C    0.029105
     3  C   -0.217705
     4  C    0.223156
     5  N    0.639115
     6  C   -0.872727
     7  Si   0.685519
     8  C   -0.616265
     9  C   -0.505797
    10  C   -0.412773
    11  H   -0.234998
    12  H   -0.329399
    13  H   -0.183056
    14  H   -0.069168
    15  H    0.059102
    16  H    0.082945
    17  H    0.067941
    18  H    0.006980
    19  H    0.005391
    20  H   -0.059598
    21  H   -0.393290
    22  H   -0.020859
    23  H    0.176006
    24  H    0.155101
    25  H    0.190988
    26  H    0.165712
    27  H    0.119462
    28  H    0.173390
    29  H    0.144117
    30  H    0.105897
    31  H    0.089761
    32  H    0.160766
 Sum of Mulliken charges =   0.00000
 Mulliken charges with hydrogens summed into heavy atoms:
               1
     1  N   -0.112274
     2  C    0.019040
     3  C   -0.066818
     4  C    0.235526
     5  N    0.186227
     6  C   -0.717579
     7  Si   0.685519
     8  C   -0.104464
     9  C   -0.068828
    10  C   -0.056349
 Electronic spatial extent (au):  <R**2>=           3040.6453
 Charge=              0.0000 electrons
 Dipole moment (field-independent basis, Debye):
    X=             -1.5562    Y=             -4.3921    Z=              2.9352  Tot=              5.5071
 Quadrupole moment (field-independent basis, Debye-Ang):
   XX=            -83.3361   YY=            -94.2651   ZZ=            -94.8223
   XY=            -11.5740   XZ=              4.5366   YZ=              1.3064
 Traceless Quadrupole moment (field-independent basis, Debye-Ang):
   XX=              7.4717   YY=             -3.4573   ZZ=             -4.0145
   XY=            -11.5740   XZ=              4.5366   YZ=              1.3064
 Octapole moment (field-independent basis, Debye-Ang**2):
  XXX=            -68.7964  YYY=            -48.3067  ZZZ=             37.4209  XYY=            -33.3791
  XXY=            -38.1590  XXZ=             14.9150  XZZ=            -36.0367  YZZ=            -22.5436
  YYZ=             11.2691  XYZ=              3.5466
 Hexadecapole moment (field-independent basis, Debye-Ang**3):
 XXXX=          -3583.8498 YYYY=          -1002.1341 ZZZZ=           -709.1658 XXXY=           -249.3070
 XXXZ=             50.2183 YYYX=           -162.9921 YYYZ=             -0.8433 ZZZX=             57.1418
 ZZZY=              6.7358 XXYY=           -829.0542 XXZZ=           -767.0179 YYZZ=           -287.8263
 XXYZ=             -5.0338 YYXZ=             -1.2928 ZZXY=            -51.2931
 N-N= 6.777496388130D+02 E-N=-2.944597232549D+03  KE= 6.765223242112D+02

 **********************************************************************

            Electrostatic Properties Using The SCF Density

 **********************************************************************

       Atomic Center    1 is at   3.269760  1.561499 -0.186583
       Atomic Center    2 is at   3.818025  0.197556  0.164920
       Atomic Center    3 is at   2.807929 -0.832805  0.680748
       Atomic Center    4 is at   1.818802 -1.452870 -0.313599
       Atomic Center    5 is at   0.600460 -0.633346 -0.665160
       Atomic Center    6 is at  -0.311866 -0.265992  0.476287
       Atomic Center    7 is at  -2.144091  0.137146  0.045530
       Atomic Center    8 is at  -2.863306  0.757775  1.675015
       Atomic Center    9 is at  -3.040864 -1.432241 -0.498214
       Atomic Center   10 is at  -2.247236  1.462324 -1.284056
       Atomic Center   11 is at   4.047592  2.194136 -0.495527
       Atomic Center   12 is at   2.526407  1.482972 -0.974218
       Atomic Center   13 is at   2.802369  2.013383  0.626953
       Atomic Center   14 is at   4.577303  0.374264  0.929653
       Atomic Center   15 is at   4.315248 -0.169015 -0.733552
       Atomic Center   16 is at   3.424166 -1.680152  1.030718
       Atomic Center   17 is at   2.294946 -0.465633  1.569955
       Atomic Center   18 is at   2.316424 -1.669475 -1.261322
       Atomic Center   19 is at   1.428949 -2.390656  0.091471
       Atomic Center   20 is at   0.082203 -1.161582 -1.385302
       Atomic Center   21 is at   0.963461  0.277392 -1.145822
       Atomic Center   22 is at   0.140503  0.625780  0.937157
       Atomic Center   23 is at  -0.282951 -1.075442  1.208634
       Atomic Center   24 is at  -2.337023  1.648822  2.030149
       Atomic Center   25 is at  -3.917192  1.025108  1.552339
       Atomic Center   26 is at  -2.807294 -0.002674  2.460048
       Atomic Center   27 is at  -2.649588 -1.827883 -1.440129
       Atomic Center   28 is at  -4.105808 -1.222889 -0.650860
       Atomic Center   29 is at  -2.963533 -2.223540  0.253929
       Atomic Center   30 is at  -1.694965  2.360262 -0.992342
       Atomic Center   31 is at  -1.831824  1.123685 -2.237500
       Atomic Center   32 is at  -3.292554  1.743539 -1.456253
 -----------------------------------------------------------------

              Electrostatic Properties (Atomic Units)

 -----------------------------------------------------------------
    Center     Electric         -------- Electric Field --------
               Potential          X             Y             Z
 -----------------------------------------------------------------
    1 Atom    -18.318046     -0.006496      0.002150     -0.006384
    2 Atom    -14.700876      0.003712     -0.009778      0.002576
    3 Atom    -14.726751      0.000027      0.001106     -0.000151
    4 Atom    -14.697619      0.008279     -0.005058      0.002342
    5 Atom    -18.292769      0.001547      0.007164     -0.002456
    6 Atom    -14.728228     -0.018041      0.005844      0.003100
    7 Atom    -49.284016     -0.003944      0.001611     -0.000987
    8 Atom    -14.786151      0.004252     -0.003278     -0.009247
    9 Atom    -14.786300      0.005311      0.008989      0.003027
   10 Atom    -14.794212      0.001327     -0.006572      0.006910
   11 Atom     -0.984564      0.013534      0.011277     -0.005678
   12 Atom     -0.996761     -0.010677     -0.000755     -0.011414
   13 Atom     -0.985435     -0.008773      0.008440      0.014742
   14 Atom     -1.080864      0.012981      0.002879      0.012984
   15 Atom     -1.081191      0.008719     -0.006354     -0.015402
   16 Atom     -1.081787      0.009578     -0.013022      0.005495
   17 Atom     -1.084370     -0.008719      0.006114      0.015246
   18 Atom     -1.074634      0.008515     -0.003821     -0.016135
   19 Atom     -1.074134     -0.006383     -0.015998      0.006802
   20 Atom     -0.978457     -0.009745     -0.010107     -0.014187
   21 Atom     -0.993481      0.004673      0.013002     -0.007013
   22 Atom     -1.082997      0.007444      0.014599      0.007826
   23 Atom     -1.076686      0.000530     -0.013560      0.012743
   24 Atom     -1.104233      0.008343      0.014786      0.006233
   25 Atom     -1.102825     -0.017354      0.004567     -0.001509
   26 Atom     -1.102900      0.000626     -0.012147      0.013262
   27 Atom     -1.103104      0.006005     -0.006895     -0.015568
   28 Atom     -1.101983     -0.017401      0.002955     -0.002621
   29 Atom     -1.102871      0.000956     -0.013289      0.012066
   30 Atom     -1.112361      0.009129      0.015115      0.004344
   31 Atom     -1.111001      0.006819     -0.005029     -0.015956
   32 Atom     -1.108449     -0.016832      0.005028     -0.003194
 -----------------------------------------------------------------
 -----------------------------------------------------
    Center         ---- Electric Field Gradient ----
                     XX            YY            ZZ
 -----------------------------------------------------
    1 Atom     -814.791648   -814.948428   -814.774068
    2 Atom     -500.341566   -500.702966   -500.234113
    3 Atom     -500.270749   -500.246727   -500.223525
    4 Atom     -500.707048   -500.548818   -500.374453
    5 Atom     -813.873971   -813.590904   -813.634835
    6 Atom     -500.440022   -500.418581   -500.715632
    7 Atom    -7158.165460  -7157.794993  -7157.748645
    8 Atom     -500.326703   -500.329406   -500.254183
    9 Atom     -500.385795   -500.324380   -500.397697
   10 Atom     -500.415533   -500.352301   -500.352342
   11 Atom       -1.749790     -1.677257     -1.550838
   12 Atom       -1.556779     -1.430400     -1.580027
   13 Atom       -1.613567     -1.614730     -1.794597
   14 Atom       -1.900815     -1.711628     -1.903891
   15 Atom       -1.780443     -1.757900     -1.983663
   16 Atom       -1.815011     -1.929155     -1.716454
   17 Atom       -1.800429     -1.746947     -1.993915
   18 Atom       -1.789431     -1.700529     -2.012133
   19 Atom       -1.761556     -2.020400     -1.755352
   20 Atom       -1.710828     -1.699093     -1.817151
   21 Atom       -1.473582     -1.635848     -1.497877
   22 Atom       -1.722445     -1.920575     -1.734163
   23 Atom       -1.678278     -1.925659     -1.884383
   24 Atom       -1.758452     -1.954249     -1.694006
   25 Atom       -2.077536     -1.676718     -1.654003
   26 Atom       -1.655337     -1.879474     -1.884573
   27 Atom       -1.712257     -1.706632     -1.992233
   28 Atom       -2.075826     -1.662394     -1.654965
   29 Atom       -1.654736     -1.887285     -1.873302
   30 Atom       -1.757891     -1.948199     -1.675832
   31 Atom       -1.712126     -1.691302     -1.991283
   32 Atom       -2.065716     -1.674439     -1.656493
 -----------------------------------------------------
 -----------------------------------------------------
    Center         ---- Electric Field Gradient ----
                     XY            XZ            YZ
 -----------------------------------------------------
    1 Atom       -0.025676      0.062953     -0.020692
    2 Atom        0.157119     -0.028645      0.142176
    3 Atom       -0.078642     -0.047554      0.015272
    4 Atom        0.237681     -0.132562      0.050685
    5 Atom        0.078491      0.010432     -0.156193
    6 Atom        0.055052      0.336031     -0.092391
    7 Atom        0.080159     -0.047011     -0.028475
    8 Atom       -0.012925     -0.042783      0.041475
    9 Atom        0.052164      0.019244      0.034509
   10 Atom        0.007724      0.001103     -0.047531
   11 Atom       -0.189827      0.101464      0.081273
   12 Atom       -0.011567     -0.146021     -0.008221
   13 Atom        0.088782      0.162393     -0.149260
   14 Atom       -0.044080     -0.217221     -0.040628
   15 Atom        0.072254      0.168835     -0.120639
   16 Atom        0.173668     -0.076147      0.100324
   17 Atom        0.065876      0.172910     -0.125622
   18 Atom        0.048069      0.166109     -0.077325
   19 Atom       -0.126854      0.052204      0.143724
   20 Atom       -0.114301     -0.171035     -0.177410
   21 Atom       -0.067703      0.036194      0.103333
   22 Atom       -0.135104     -0.060700     -0.151878
   23 Atom        0.015845      0.005344      0.224646
   24 Atom       -0.181726     -0.073051     -0.118303
   25 Atom        0.106958     -0.054480      0.014670
   26 Atom        0.017681     -0.019675      0.231575
   27 Atom        0.061269      0.144554     -0.140206
   28 Atom        0.089776     -0.060284      0.013421
   29 Atom        0.026958     -0.023546      0.230107
   30 Atom       -0.188075     -0.063454     -0.104321
   31 Atom        0.056743      0.150750     -0.128341
   32 Atom        0.109360     -0.065725      0.016007
 -----------------------------------------------------
 -----------------------------------------------------
    Center         ---- Electric Field Gradient ----
                   ----       Eigenvalues       ----
 -----------------------------------------------------
    1 Atom     -814.953246   -814.846119   -814.714779
    2 Atom     -500.798145   -500.288225   -500.192274
    3 Atom     -500.344496   -500.244163   -500.152342
    4 Atom     -500.913501   -500.398429   -500.318390
    5 Atom     -813.906074   -813.745120   -813.448517
    6 Atom     -500.962234   -500.397539   -500.214461
    7 Atom    -7158.185798  -7157.802485  -7157.720816
    8 Atom     -500.351618   -500.340955   -500.217718
    9 Atom     -500.415654   -500.411057   -500.281161
   10 Atom     -500.417887   -500.397697   -500.304592
   11 Atom       -1.949199     -1.520571     -1.508116
   12 Atom       -1.715563     -1.430693     -1.420950
   13 Atom       -1.973956     -1.530829     -1.518109
   14 Atom       -2.128190     -1.703395     -1.684749
   15 Atom       -2.131943     -1.705597     -1.684466
   16 Atom       -2.096598     -1.689762     -1.674260
   17 Atom       -2.145668     -1.704256     -1.691367
   18 Atom       -2.120421     -1.702403     -1.679270
   19 Atom       -2.133889     -1.711484     -1.691935
   20 Atom       -2.064598     -1.593176     -1.569298
   21 Atom       -1.715472     -1.449217     -1.442618
   22 Atom       -2.068537     -1.667373     -1.641273
   23 Atom       -2.130759     -1.693419     -1.664142
   24 Atom       -2.109309     -1.651013     -1.646385
   25 Atom       -2.111251     -1.650274     -1.646732
   26 Atom       -2.115131     -1.654238     -1.650015
   27 Atom       -2.111317     -1.651862     -1.647942
   28 Atom       -2.102991     -1.646707     -1.643487
   29 Atom       -2.113293     -1.653101     -1.648929
   30 Atom       -2.099049     -1.642438     -1.640436
   31 Atom       -2.104773     -1.646383     -1.643555
   32 Atom       -2.104421     -1.647195     -1.645033
 -----------------------------------------------------
 -----------------------------------------------------
    Center         ---- Electric Field Gradient ----
                       ( tensor representation )
                   3XX-RR        3YY-RR        3ZZ-RR
 -----------------------------------------------------
    1 Atom        0.046400     -0.110380      0.063980
    2 Atom        0.084649     -0.276751      0.192102
    3 Atom       -0.023749      0.000273      0.023475
    4 Atom       -0.163608     -0.005379      0.168986
    5 Atom       -0.174068      0.108999      0.065068
    6 Atom        0.084723      0.106164     -0.190887
    7 Atom       -0.262427      0.108040      0.154387
    8 Atom       -0.023272     -0.025976      0.049248
    9 Atom       -0.016504      0.044911     -0.028406
   10 Atom       -0.042141      0.021091      0.021050
   11 Atom       -0.090495     -0.017962      0.108457
   12 Atom       -0.034377      0.092002     -0.057625
   13 Atom        0.060731      0.059568     -0.120299
   14 Atom       -0.062037      0.127150     -0.065113
   15 Atom        0.060225      0.082769     -0.142994
   16 Atom        0.005196     -0.108949      0.103753
   17 Atom        0.046668      0.100150     -0.146818
   18 Atom        0.044600      0.133502     -0.178102
   19 Atom        0.084213     -0.174630      0.090417
   20 Atom        0.031529      0.043264     -0.074794
   21 Atom        0.062187     -0.100079      0.037892
   22 Atom        0.069949     -0.128181      0.058231
   23 Atom        0.151162     -0.096219     -0.054943
   24 Atom        0.043784     -0.152014      0.108230
   25 Atom       -0.274784      0.126034      0.148750
   26 Atom        0.151124     -0.073012     -0.078112
   27 Atom        0.091450      0.097076     -0.188526
   28 Atom       -0.278098      0.135334      0.142764
   29 Atom        0.150371     -0.082177     -0.068194
   30 Atom        0.036083     -0.154225      0.118142
   31 Atom        0.086111      0.106935     -0.193046
   32 Atom       -0.266834      0.124444      0.142390
 -----------------------------------------------------
 -----------------------------------------------------
    Center         ---- Electric Field Gradient ----
                       ( tensor representation )
                   ----       Eigenvalues       ----
 -----------------------------------------------------
    1 Atom       -0.115198     -0.008071      0.123269
    2 Atom       -0.371931      0.137989      0.233941
    3 Atom       -0.097496      0.002838      0.094658
    4 Atom       -0.370061      0.145011      0.225050
    5 Atom       -0.206170     -0.045217      0.251387
    6 Atom       -0.437490      0.127206      0.310284
    7 Atom       -0.282765      0.100548      0.182217
    8 Atom       -0.048188     -0.037525      0.085713
    9 Atom       -0.046363     -0.041767      0.088130
   10 Atom       -0.044495     -0.024305      0.068800
   11 Atom       -0.289903      0.138724      0.151179
   12 Atom       -0.193161      0.091709      0.101452
   13 Atom       -0.299658      0.143469      0.156189
   14 Atom       -0.289412      0.135383      0.154029
   15 Atom       -0.291275      0.135072      0.156203
   16 Atom       -0.276392      0.130445      0.145947
   17 Atom       -0.298571      0.142841      0.155730
   18 Atom       -0.286390      0.131628      0.154762
   19 Atom       -0.288120      0.134285      0.153835
   20 Atom       -0.322241      0.149181      0.173060
   21 Atom       -0.179703      0.086552      0.093151
   22 Atom       -0.276143      0.125021      0.151122
   23 Atom       -0.301319      0.136021      0.165298
   24 Atom       -0.307074      0.151223      0.155851
   25 Atom       -0.308499      0.152479      0.156020
   26 Atom       -0.308670      0.152224      0.156446
   27 Atom       -0.307610      0.151845      0.155765
   28 Atom       -0.305263      0.151021      0.154242
   29 Atom       -0.308185      0.152007      0.156179
   30 Atom       -0.305075      0.151536      0.153538
   31 Atom       -0.306536      0.151854      0.154682
   32 Atom       -0.305538      0.151688      0.153850
 -----------------------------------------------------

 Test job not archived.
 1|1|UNPC-NP-ALMACH|FOpt|RB3LYP|6-311++G(d,p)|C7H22N2Si1|HERA|15-Aug-20
 18|0||# RB3LYP/6-311++G** Opt Test prop=EFG||SiC7N2H22||0,1|N,-2.35905
 78638,0.5472219619,-2.4084937731|C,-3.0831136863,0.0394424135,-1.18277
 28598|C,-2.2097815577,-0.5332708083,-0.0614751732|C,-1.3814708833,0.43
 52366105,0.7914454698|N,-0.0767253544,0.9171480384,0.2041022168|C,0.94
 30224434,-0.1429578485,-0.1222123009|Si,2.7875271669,0.4021117157,-0.1
 985061866|C,3.6817947647,-1.1261580402,-0.8483911587|C,3.409084223,0.8
 245697814,1.532976201|C,3.0111377552,1.8597744837,-1.3645901368|H,-3.0
 504759,0.8845295983,-3.1218411373|H,-1.6812851545,1.3536487503,-2.1450
 354623|H,-1.7845497102,-0.1971473915,-2.8560976875|H,-3.7633173221,-0.
 7351400703,-1.5431733842|H,-3.6791980305,0.8754678468,-0.8158913922|H,
 -2.9242953521,-0.9911169157,0.6456811966|H,-1.5985716897,-1.3593639695
 ,-0.4256827109|H,-1.9584531129,1.335089557,1.0152304118|H,-1.113002403
 8,-0.044181993,1.7367456067|H,0.3158205867,1.6024143755,0.869342134|H,
 -0.3269693699,1.4701601375,-0.7035349014|H,0.6548885282,-0.5316274307,
 -1.111257366|H,0.835585312,-0.9525715898,0.6026046449|H,3.3146087261,-
 1.4128780653,-1.838353109|H,4.75507248,-0.9334848793,-0.9386308015|H,3
 .5578579834,-1.9844254572,-0.1807737867|H,2.9108296504,1.7053428275,1.
 9486855061|H,4.4829744766,1.0417492175,1.5042295961|H,3.2576600435,-0.
 0049544742,2.230696812|H,2.6157366699,1.6356990995,-2.3594986132|H,2.4
 968696037,2.7566533759,-1.0076085819|H,4.0752229776,2.1026981426,-1.46
 52592726||Version=EM64W-G09RevD.01|State=1-A|HF=-678.9818838|RMSD=4.36
 2e-009|RMSF=9.044e-006|Dipole=0.4129969,-1.293878,1.6881023|Quadrupole
 =7.5127429,-2.8044336,-4.7083094,4.4207717,-6.7221776,1.2585211|PG=C01
  [X(C7H22N2Si1)]||@


 CHRISTMAS IS ON TOP OF A STEEP HILL.
 THE CLOSER YOU GET, THE STEEPER THE HILL IS.
          -- LINUS, OF PEANUTS
 Job cpu time:       0 days  0 hours 52 minutes  6.0 seconds.
 File lengths (MBytes):  RWF=     67 Int=      0 D2E=      0 Chk=     11 Scr=      1
 Normal termination of Gaussian 09 at Wed Aug 15 20:48:21 2018.
