 Entering Link 1 = C:\G09W\l1.exe PID=      9860.
  
 Copyright (c) 1988,1990,1992,1993,1995,1998,2003,2009,2013,
            Gaussian, Inc.  All Rights Reserved.
  
 This is part of the Gaussian(R) 09 program.  It is based on
 the Gaussian(R) 03 system (copyright 2003, Gaussian, Inc.),
 the Gaussian(R) 98 system (copyright 1998, Gaussian, Inc.),
 the Gaussian(R) 94 system (copyright 1995, Gaussian, Inc.),
 the Gaussian 92(TM) system (copyright 1992, Gaussian, Inc.),
 the Gaussian 90(TM) system (copyright 1990, Gaussian, Inc.),
 the Gaussian 88(TM) system (copyright 1988, Gaussian, Inc.),
 the Gaussian 86(TM) system (copyright 1986, Carnegie Mellon
 University), and the Gaussian 82(TM) system (copyright 1983,
 Carnegie Mellon University). Gaussian is a federally registered
 trademark of Gaussian, Inc.
  
 This software contains proprietary and confidential information,
 including trade secrets, belonging to Gaussian, Inc.
  
 This software is provided under written license and may be
 used, copied, transmitted, or stored only in accord with that
 written license.
  
 The following legend is applicable only to US Government
 contracts under FAR:
  
                    RESTRICTED RIGHTS LEGEND
  
 Use, reproduction and disclosure by the US Government is
 subject to restrictions as set forth in subparagraphs (a)
 and (c) of the Commercial Computer Software - Restricted
 Rights clause in FAR 52.227-19.
  
 Gaussian, Inc.
 340 Quinnipiac St., Bldg. 40, Wallingford CT 06492
  
  
 ---------------------------------------------------------------
 Warning -- This program may not be used in any manner that
 competes with the business of Gaussian, Inc. or will provide
 assistance to any competitor of Gaussian, Inc.  The licensee
 of this program is prohibited from giving any competitor of
 Gaussian, Inc. access to this program.  By using this program,
 the user acknowledges that Gaussian, Inc. is engaged in the
 business of creating and licensing software in the field of
 computational chemistry and represents and warrants to the
 licensee that it is not a competitor of Gaussian, Inc. and that
 it will not use this program in any manner prohibited above.
 ---------------------------------------------------------------
  

 Cite this work as:
 Gaussian 09, Revision D.01,
 M. J. Frisch, G. W. Trucks, H. B. Schlegel, G. E. Scuseria, 
 M. A. Robb, J. R. Cheeseman, G. Scalmani, V. Barone, B. Mennucci, 
 G. A. Petersson, H. Nakatsuji, M. Caricato, X. Li, H. P. Hratchian, 
 A. F. Izmaylov, J. Bloino, G. Zheng, J. L. Sonnenberg, M. Hada, 
 M. Ehara, K. Toyota, R. Fukuda, J. Hasegawa, M. Ishida, T. Nakajima, 
 Y. Honda, O. Kitao, H. Nakai, T. Vreven, J. A. Montgomery, Jr., 
 J. E. Peralta, F. Ogliaro, M. Bearpark, J. J. Heyd, E. Brothers, 
 K. N. Kudin, V. N. Staroverov, T. Keith, R. Kobayashi, J. Normand, 
 K. Raghavachari, A. Rendell, J. C. Burant, S. S. Iyengar, J. Tomasi, 
 M. Cossi, N. Rega, J. M. Millam, M. Klene, J. E. Knox, J. B. Cross, 
 V. Bakken, C. Adamo, J. Jaramillo, R. Gomperts, R. E. Stratmann, 
 O. Yazyev, A. J. Austin, R. Cammi, C. Pomelli, J. W. Ochterski, 
 R. L. Martin, K. Morokuma, V. G. Zakrzewski, G. A. Voth, 
 P. Salvador, J. J. Dannenberg, S. Dapprich, A. D. Daniels, 
 O. Farkas, J. B. Foresman, J. V. Ortiz, J. Cioslowski, 
 and D. J. Fox, Gaussian, Inc., Wallingford CT, 2013.
 
 ******************************************
 Gaussian 09:  EM64W-G09RevD.01 13-Apr-2013
                07-Aug-2018 
 ******************************************
 %Chk=Anth_252.chk
 %Mem=64GB
 %NProcShared=20
 Will use up to   20 processors via shared memory.
 -------------------------------------
 # RB3LYP/6-311++G** Opt Test prop=EFG
 -------------------------------------
 1/14=-1,18=20,19=15,26=3,38=1/1,3;
 2/9=110,12=2,17=6,18=5,40=1/2;
 3/5=4,6=6,7=1111,11=2,16=1,25=1,30=1,71=1,74=-5,116=1/1,2,3;
 4//1;
 5/5=2,38=5/2;
 6/7=2,8=2,9=2,10=2,14=1,28=1/1,2;
 7//1,2,3,16;
 1/14=-1,18=20,19=15,26=3/3(2);
 2/9=110/2;
 99//99;
 2/9=110/2;
 3/5=4,6=6,7=1111,11=2,16=1,25=1,30=1,71=1,74=-5,116=1/1,2,3;
 4/5=5,16=3,69=1/1;
 5/5=2,38=5/2;
 7//1,2,3,16;
 1/14=-1,18=20,19=15,26=3/3(-5);
 2/9=110/2;
 6/7=2,8=2,9=2,10=2,14=1,19=2,28=1/1,2;
 99/9=1/99;
 -------
 C10NH18
 -------
 Symbolic Z-matrix:
 Charge =  1 Multiplicity = 1
 C                     0.61714  -0.43635   0.9462 
 C                     1.61924  -0.62242  -0.20926 
 C                     0.93794  -0.26586  -1.5436 
 C                    -0.26193  -1.20197  -1.76743 
 C                    -1.26579  -1.02466  -0.61563 
 C                    -0.58341  -1.37281   0.71822 
 C                     0.18205   1.037     0.95455 
 C                    -1.75133   0.4344   -0.57809 
 C                    -0.55279   1.37392  -0.35184 
 C                     0.4459    1.19314  -1.51111 
 N                    -0.7759    1.23524   2.09493 
 H                     1.11306  -0.68839   1.91573 
 H                     2.51333   0.02559  -0.05196 
 H                     1.98769  -1.67475  -0.23422 
 H                     1.66923  -0.39309  -2.38013 
 H                     0.08094  -2.26194  -1.81947 
 H                    -0.75148  -0.97407  -2.74325 
 H                    -2.13906  -1.70458  -0.77669 
 H                    -1.31511  -1.29036   1.55467 
 H                    -0.24109  -2.43433   0.70579 
 H                     1.05075   1.71605   1.11928 
 H                    -2.51333   0.56283   0.22481 
 H                    -2.26089   0.69149  -1.53643 
 H                    -0.90513   2.43433  -0.32339 
 H                     1.31147   1.88526  -1.38544 
 H                    -0.03704   1.45822  -2.48079 
 H                    -0.89802   0.33905   2.61745 
 H                    -1.7009    1.55696   1.73171 
 H                    -0.39249   1.95962   2.74325 
 

 GradGradGradGradGradGradGradGradGradGradGradGradGradGradGradGradGradGrad
 Berny optimization.
 Initialization pass.
                           ----------------------------
                           !    Initial Parameters    !
                           ! (Angstroms and Degrees)  !
 --------------------------                            --------------------------
 ! Name  Definition              Value          Derivative Info.                !
 --------------------------------------------------------------------------------
 ! R1    R(1,2)                  1.5408         estimate D2E/DX2                !
 ! R2    R(1,6)                  1.5396         estimate D2E/DX2                !
 ! R3    R(1,7)                  1.5363         estimate D2E/DX2                !
 ! R4    R(1,12)                 1.1178         estimate D2E/DX2                !
 ! R5    R(2,3)                  1.5401         estimate D2E/DX2                !
 ! R6    R(2,13)                 1.1154         estimate D2E/DX2                !
 ! R7    R(2,14)                 1.1153         estimate D2E/DX2                !
 ! R8    R(3,4)                  1.5382         estimate D2E/DX2                !
 ! R9    R(3,10)                 1.5401         estimate D2E/DX2                !
 ! R10   R(3,15)                 1.1184         estimate D2E/DX2                !
 ! R11   R(4,5)                  1.5381         estimate D2E/DX2                !
 ! R12   R(4,16)                 1.1153         estimate D2E/DX2                !
 ! R13   R(4,17)                 1.1153         estimate D2E/DX2                !
 ! R14   R(5,6)                  1.5382         estimate D2E/DX2                !
 ! R15   R(5,8)                  1.5382         estimate D2E/DX2                !
 ! R16   R(5,18)                 1.1184         estimate D2E/DX2                !
 ! R17   R(6,19)                 1.1144         estimate D2E/DX2                !
 ! R18   R(6,20)                 1.1154         estimate D2E/DX2                !
 ! R19   R(7,9)                  1.5363         estimate D2E/DX2                !
 ! R20   R(7,11)                 1.5025         estimate D2E/DX2                !
 ! R21   R(7,21)                 1.1148         estimate D2E/DX2                !
 ! R22   R(8,9)                  1.5396         estimate D2E/DX2                !
 ! R23   R(8,22)                 1.1143         estimate D2E/DX2                !
 ! R24   R(8,23)                 1.1154         estimate D2E/DX2                !
 ! R25   R(9,10)                 1.5408         estimate D2E/DX2                !
 ! R26   R(9,24)                 1.1178         estimate D2E/DX2                !
 ! R27   R(10,25)                1.1154         estimate D2E/DX2                !
 ! R28   R(10,26)                1.1153         estimate D2E/DX2                !
 ! R29   R(11,27)                1.0446         estimate D2E/DX2                !
 ! R30   R(11,28)                1.0445         estimate D2E/DX2                !
 ! R31   R(11,29)                1.045          estimate D2E/DX2                !
 ! A1    A(2,1,6)              108.8245         estimate D2E/DX2                !
 ! A2    A(2,1,7)              107.7037         estimate D2E/DX2                !
 ! A3    A(2,1,12)             109.5531         estimate D2E/DX2                !
 ! A4    A(6,1,7)              111.3035         estimate D2E/DX2                !
 ! A5    A(6,1,12)             109.7092         estimate D2E/DX2                !
 ! A6    A(7,1,12)             109.7058         estimate D2E/DX2                !
 ! A7    A(1,2,3)              109.5159         estimate D2E/DX2                !
 ! A8    A(1,2,13)             110.2086         estimate D2E/DX2                !
 ! A9    A(1,2,14)             110.2193         estimate D2E/DX2                !
 ! A10   A(3,2,13)             110.017          estimate D2E/DX2                !
 ! A11   A(3,2,14)             110.1953         estimate D2E/DX2                !
 ! A12   A(13,2,14)            106.6506         estimate D2E/DX2                !
 ! A13   A(2,3,4)              109.2849         estimate D2E/DX2                !
 ! A14   A(2,3,10)             110.0229         estimate D2E/DX2                !
 ! A15   A(2,3,15)             109.4181         estimate D2E/DX2                !
 ! A16   A(4,3,10)             109.2922         estimate D2E/DX2                !
 ! A17   A(4,3,15)             109.3893         estimate D2E/DX2                !
 ! A18   A(10,3,15)            109.4185         estimate D2E/DX2                !
 ! A19   A(3,4,5)              109.2674         estimate D2E/DX2                !
 ! A20   A(3,4,16)             110.2047         estimate D2E/DX2                !
 ! A21   A(3,4,17)             110.204          estimate D2E/DX2                !
 ! A22   A(5,4,16)             110.1911         estimate D2E/DX2                !
 ! A23   A(5,4,17)             110.1916         estimate D2E/DX2                !
 ! A24   A(16,4,17)            106.7587         estimate D2E/DX2                !
 ! A25   A(4,5,6)              109.4954         estimate D2E/DX2                !
 ! A26   A(4,5,8)              109.4896         estimate D2E/DX2                !
 ! A27   A(4,5,18)             109.371          estimate D2E/DX2                !
 ! A28   A(6,5,8)              109.4852         estimate D2E/DX2                !
 ! A29   A(6,5,18)             109.4921         estimate D2E/DX2                !
 ! A30   A(8,5,18)             109.4939         estimate D2E/DX2                !
 ! A31   A(1,6,5)              109.6746         estimate D2E/DX2                !
 ! A32   A(1,6,19)             110.8466         estimate D2E/DX2                !
 ! A33   A(1,6,20)             109.9506         estimate D2E/DX2                !
 ! A34   A(5,6,19)             110.0506         estimate D2E/DX2                !
 ! A35   A(5,6,20)             109.9912         estimate D2E/DX2                !
 ! A36   A(19,6,20)            106.2776         estimate D2E/DX2                !
 ! A37   A(1,7,9)              109.9485         estimate D2E/DX2                !
 ! A38   A(1,7,11)             108.1335         estimate D2E/DX2                !
 ! A39   A(1,7,21)             111.3624         estimate D2E/DX2                !
 ! A40   A(9,7,11)             108.1503         estimate D2E/DX2                !
 ! A41   A(9,7,21)             111.3944         estimate D2E/DX2                !
 ! A42   A(11,7,21)            107.7161         estimate D2E/DX2                !
 ! A43   A(5,8,9)              109.676          estimate D2E/DX2                !
 ! A44   A(5,8,22)             110.0449         estimate D2E/DX2                !
 ! A45   A(5,8,23)             109.9907         estimate D2E/DX2                !
 ! A46   A(9,8,22)             110.8612         estimate D2E/DX2                !
 ! A47   A(9,8,23)             109.952          estimate D2E/DX2                !
 ! A48   A(22,8,23)            106.266          estimate D2E/DX2                !
 ! A49   A(7,9,8)              111.3151         estimate D2E/DX2                !
 ! A50   A(7,9,10)             107.7            estimate D2E/DX2                !
 ! A51   A(7,9,24)             109.7055         estimate D2E/DX2                !
 ! A52   A(8,9,10)             108.8091         estimate D2E/DX2                !
 ! A53   A(8,9,24)             109.7107         estimate D2E/DX2                !
 ! A54   A(10,9,24)            109.559          estimate D2E/DX2                !
 ! A55   A(3,10,9)             109.5188         estimate D2E/DX2                !
 ! A56   A(3,10,25)            110.0173         estimate D2E/DX2                !
 ! A57   A(3,10,26)            110.193          estimate D2E/DX2                !
 ! A58   A(9,10,25)            110.2078         estimate D2E/DX2                !
 ! A59   A(9,10,26)            110.2199         estimate D2E/DX2                !
 ! A60   A(25,10,26)           106.6498         estimate D2E/DX2                !
 ! A61   A(7,11,27)            109.9387         estimate D2E/DX2                !
 ! A62   A(7,11,28)            109.9579         estimate D2E/DX2                !
 ! A63   A(7,11,29)            109.1722         estimate D2E/DX2                !
 ! A64   A(27,11,28)           109.5526         estimate D2E/DX2                !
 ! A65   A(27,11,29)           109.1032         estimate D2E/DX2                !
 ! A66   A(28,11,29)           109.0954         estimate D2E/DX2                !
 ! D1    D(6,1,2,3)             60.4309         estimate D2E/DX2                !
 ! D2    D(6,1,2,13)          -178.4076         estimate D2E/DX2                !
 ! D3    D(6,1,2,14)           -60.9588         estimate D2E/DX2                !
 ! D4    D(7,1,2,3)            -60.349          estimate D2E/DX2                !
 ! D5    D(7,1,2,13)            60.8124         estimate D2E/DX2                !
 ! D6    D(7,1,2,14)           178.2613         estimate D2E/DX2                !
 ! D7    D(12,1,2,3)          -179.6229         estimate D2E/DX2                !
 ! D8    D(12,1,2,13)          -58.4614         estimate D2E/DX2                !
 ! D9    D(12,1,2,14)           58.9874         estimate D2E/DX2                !
 ! D10   D(2,1,6,5)            -60.1891         estimate D2E/DX2                !
 ! D11   D(2,1,6,19)           178.0911         estimate D2E/DX2                !
 ! D12   D(2,1,6,20)            60.878          estimate D2E/DX2                !
 ! D13   D(7,1,6,5)             58.3514         estimate D2E/DX2                !
 ! D14   D(7,1,6,19)           -63.3684         estimate D2E/DX2                !
 ! D15   D(7,1,6,20)           179.4185         estimate D2E/DX2                !
 ! D16   D(12,1,6,5)           179.9616         estimate D2E/DX2                !
 ! D17   D(12,1,6,19)           58.2418         estimate D2E/DX2                !
 ! D18   D(12,1,6,20)          -58.9713         estimate D2E/DX2                !
 ! D19   D(2,1,7,9)             63.1915         estimate D2E/DX2                !
 ! D20   D(2,1,7,11)          -178.9312         estimate D2E/DX2                !
 ! D21   D(2,1,7,21)           -60.772          estimate D2E/DX2                !
 ! D22   D(6,1,7,9)            -56.0197         estimate D2E/DX2                !
 ! D23   D(6,1,7,11)            61.8576         estimate D2E/DX2                !
 ! D24   D(6,1,7,21)          -179.9832         estimate D2E/DX2                !
 ! D25   D(12,1,7,9)          -177.6319         estimate D2E/DX2                !
 ! D26   D(12,1,7,11)          -59.7546         estimate D2E/DX2                !
 ! D27   D(12,1,7,21)           58.4046         estimate D2E/DX2                !
 ! D28   D(1,2,3,4)            -60.7249         estimate D2E/DX2                !
 ! D29   D(1,2,3,10)            59.2787         estimate D2E/DX2                !
 ! D30   D(1,2,3,15)           179.521          estimate D2E/DX2                !
 ! D31   D(13,2,3,4)           177.9979         estimate D2E/DX2                !
 ! D32   D(13,2,3,10)          -61.9985         estimate D2E/DX2                !
 ! D33   D(13,2,3,15)           58.2438         estimate D2E/DX2                !
 ! D34   D(14,2,3,4)            60.6792         estimate D2E/DX2                !
 ! D35   D(14,2,3,10)         -179.3171         estimate D2E/DX2                !
 ! D36   D(14,2,3,15)          -59.0748         estimate D2E/DX2                !
 ! D37   D(2,3,4,5)             60.2328         estimate D2E/DX2                !
 ! D38   D(2,3,4,16)           -60.9822         estimate D2E/DX2                !
 ! D39   D(2,3,4,17)          -178.552          estimate D2E/DX2                !
 ! D40   D(10,3,4,5)           -60.2188         estimate D2E/DX2                !
 ! D41   D(10,3,4,16)          178.5661         estimate D2E/DX2                !
 ! D42   D(10,3,4,17)           60.9963         estimate D2E/DX2                !
 ! D43   D(15,3,4,5)          -179.9954         estimate D2E/DX2                !
 ! D44   D(15,3,4,16)           58.7895         estimate D2E/DX2                !
 ! D45   D(15,3,4,17)          -58.7803         estimate D2E/DX2                !
 ! D46   D(2,3,10,9)           -59.2802         estimate D2E/DX2                !
 ! D47   D(2,3,10,25)           61.998          estimate D2E/DX2                !
 ! D48   D(2,3,10,26)          179.3145         estimate D2E/DX2                !
 ! D49   D(4,3,10,9)            60.7191         estimate D2E/DX2                !
 ! D50   D(4,3,10,25)         -178.0027         estimate D2E/DX2                !
 ! D51   D(4,3,10,26)          -60.6863         estimate D2E/DX2                !
 ! D52   D(15,3,10,9)         -179.5223         estimate D2E/DX2                !
 ! D53   D(15,3,10,25)         -58.2441         estimate D2E/DX2                !
 ! D54   D(15,3,10,26)          59.0724         estimate D2E/DX2                !
 ! D55   D(3,4,5,6)            -60.0235         estimate D2E/DX2                !
 ! D56   D(3,4,5,8)             60.0198         estimate D2E/DX2                !
 ! D57   D(3,4,5,18)           179.9975         estimate D2E/DX2                !
 ! D58   D(16,4,5,6)            61.1998         estimate D2E/DX2                !
 ! D59   D(16,4,5,8)          -178.7569         estimate D2E/DX2                !
 ! D60   D(16,4,5,18)          -58.7792         estimate D2E/DX2                !
 ! D61   D(17,4,5,6)           178.7538         estimate D2E/DX2                !
 ! D62   D(17,4,5,8)           -61.2029         estimate D2E/DX2                !
 ! D63   D(17,4,5,18)           58.7748         estimate D2E/DX2                !
 ! D64   D(4,5,6,1)             60.2624         estimate D2E/DX2                !
 ! D65   D(4,5,6,19)          -177.5421         estimate D2E/DX2                !
 ! D66   D(4,5,6,20)           -60.7803         estimate D2E/DX2                !
 ! D67   D(8,5,6,1)            -59.7836         estimate D2E/DX2                !
 ! D68   D(8,5,6,19)            62.412          estimate D2E/DX2                !
 ! D69   D(8,5,6,20)           179.1738         estimate D2E/DX2                !
 ! D70   D(18,5,6,1)          -179.8327         estimate D2E/DX2                !
 ! D71   D(18,5,6,19)          -57.6372         estimate D2E/DX2                !
 ! D72   D(18,5,6,20)           59.1246         estimate D2E/DX2                !
 ! D73   D(4,5,8,9)            -60.2836         estimate D2E/DX2                !
 ! D74   D(4,5,8,22)           177.5054         estimate D2E/DX2                !
 ! D75   D(4,5,8,23)            60.7614         estimate D2E/DX2                !
 ! D76   D(6,5,8,9)             59.766          estimate D2E/DX2                !
 ! D77   D(6,5,8,22)           -62.4451         estimate D2E/DX2                !
 ! D78   D(6,5,8,23)          -179.1891         estimate D2E/DX2                !
 ! D79   D(18,5,8,9)           179.814          estimate D2E/DX2                !
 ! D80   D(18,5,8,22)           57.6029         estimate D2E/DX2                !
 ! D81   D(18,5,8,23)          -59.1411         estimate D2E/DX2                !
 ! D82   D(1,7,9,8)             56.008          estimate D2E/DX2                !
 ! D83   D(1,7,9,10)           -63.1889         estimate D2E/DX2                !
 ! D84   D(1,7,9,24)           177.6296         estimate D2E/DX2                !
 ! D85   D(11,7,9,8)           -61.8589         estimate D2E/DX2                !
 ! D86   D(11,7,9,10)          178.9442         estimate D2E/DX2                !
 ! D87   D(11,7,9,24)           59.7628         estimate D2E/DX2                !
 ! D88   D(21,7,9,8)           179.9529         estimate D2E/DX2                !
 ! D89   D(21,7,9,10)           60.756          estimate D2E/DX2                !
 ! D90   D(21,7,9,24)          -58.4255         estimate D2E/DX2                !
 ! D91   D(1,7,11,27)            1.3288         estimate D2E/DX2                !
 ! D92   D(1,7,11,28)         -119.3678         estimate D2E/DX2                !
 ! D93   D(1,7,11,29)          120.9795         estimate D2E/DX2                !
 ! D94   D(9,7,11,27)          120.352          estimate D2E/DX2                !
 ! D95   D(9,7,11,28)           -0.3446         estimate D2E/DX2                !
 ! D96   D(9,7,11,29)         -119.9973         estimate D2E/DX2                !
 ! D97   D(21,7,11,27)        -119.1358         estimate D2E/DX2                !
 ! D98   D(21,7,11,28)         120.1676         estimate D2E/DX2                !
 ! D99   D(21,7,11,29)           0.5149         estimate D2E/DX2                !
 ! D100  D(5,8,9,7)            -58.3226         estimate D2E/DX2                !
 ! D101  D(5,8,9,10)            60.2107         estimate D2E/DX2                !
 ! D102  D(5,8,9,24)          -179.9412         estimate D2E/DX2                !
 ! D103  D(22,8,9,7)            63.4007         estimate D2E/DX2                !
 ! D104  D(22,8,9,10)         -178.0661         estimate D2E/DX2                !
 ! D105  D(22,8,9,24)          -58.2179         estimate D2E/DX2                !
 ! D106  D(23,8,9,7)          -179.3909         estimate D2E/DX2                !
 ! D107  D(23,8,9,10)          -60.8576         estimate D2E/DX2                !
 ! D108  D(23,8,9,24)           58.9905         estimate D2E/DX2                !
 ! D109  D(7,9,10,3)            60.3478         estimate D2E/DX2                !
 ! D110  D(7,9,10,25)          -60.8153         estimate D2E/DX2                !
 ! D111  D(7,9,10,26)         -178.263          estimate D2E/DX2                !
 ! D112  D(8,9,10,3)           -60.4351         estimate D2E/DX2                !
 ! D113  D(8,9,10,25)          178.4018         estimate D2E/DX2                !
 ! D114  D(8,9,10,26)           60.9541         estimate D2E/DX2                !
 ! D115  D(24,9,10,3)          179.6227         estimate D2E/DX2                !
 ! D116  D(24,9,10,25)          58.4596         estimate D2E/DX2                !
 ! D117  D(24,9,10,26)         -58.9882         estimate D2E/DX2                !
 --------------------------------------------------------------------------------
 Trust Radius=3.00D-01 FncErr=1.00D-07 GrdErr=1.00D-06
 Number of steps in this run=    174 maximum allowed number of steps=    174.
 GradGradGradGradGradGradGradGradGradGradGradGradGradGradGradGradGradGrad

                          Input orientation:                          
 ---------------------------------------------------------------------
 Center     Atomic      Atomic             Coordinates (Angstroms)
 Number     Number       Type             X           Y           Z
 ---------------------------------------------------------------------
      1          6           0        0.617142   -0.436346    0.946204
      2          6           0        1.619243   -0.622417   -0.209256
      3          6           0        0.937935   -0.265861   -1.543596
      4          6           0       -0.261932   -1.201969   -1.767430
      5          6           0       -1.265793   -1.024663   -0.615631
      6          6           0       -0.583407   -1.372811    0.718224
      7          6           0        0.182051    1.037003    0.954549
      8          6           0       -1.751333    0.434399   -0.578089
      9          6           0       -0.552794    1.373922   -0.351838
     10          6           0        0.445895    1.193136   -1.511108
     11          7           0       -0.775904    1.235243    2.094928
     12          1           0        1.113055   -0.688392    1.915730
     13          1           0        2.513326    0.025594   -0.051962
     14          1           0        1.987693   -1.674750   -0.234219
     15          1           0        1.669231   -0.393091   -2.380128
     16          1           0        0.080943   -2.261943   -1.819471
     17          1           0       -0.751484   -0.974065   -2.743245
     18          1           0       -2.139062   -1.704579   -0.776693
     19          1           0       -1.315112   -1.290361    1.554668
     20          1           0       -0.241092   -2.434331    0.705785
     21          1           0        1.050754    1.716049    1.119276
     22          1           0       -2.513326    0.562832    0.224810
     23          1           0       -2.260889    0.691494   -1.536426
     24          1           0       -0.905134    2.434331   -0.323389
     25          1           0        1.311467    1.885258   -1.385435
     26          1           0       -0.037041    1.458221   -2.480794
     27          1           0       -0.898022    0.339050    2.617454
     28          1           0       -1.700898    1.556961    1.731713
     29          1           0       -0.392490    1.959620    2.743245
 ---------------------------------------------------------------------
                    Distance matrix (angstroms):
                    1          2          3          4          5
     1  C    0.000000
     2  C    1.540752   0.000000
     3  C    2.516163   1.540057   0.000000
     4  C    2.953432   2.510499   1.538207   0.000000
     5  C    2.516126   2.941152   2.508648   1.538121   0.000000
     6  C    1.539565   2.504990   2.942049   2.512172   1.538189
     7  C    1.536272   2.484681   2.917112   3.552363   2.968532
     8  C    2.948108   3.551574   2.941892   2.512080   1.538187
     9  C    2.516095   2.953548   2.516237   2.953594   2.516181
    10  C    2.953459   2.523449   1.540075   2.510627   2.941154
    11  N    2.460560   3.807479   4.292949   4.595865   3.562906
    12  H    1.117782   2.185439   3.489432   3.964848   3.489955
    13  H    2.192085   1.115367   2.189012   3.485943   3.962638
    14  H    2.192134   1.115250   2.191216   2.763163   3.339650
    15  H    3.489018   2.183523   1.118377   2.181530   3.482341
    16  H    3.356974   2.765358   2.189723   1.115265   2.189473
    17  H    3.971689   3.487851   2.189714   1.115265   2.189478
    18  H    3.489047   3.951951   3.482235   2.181237   1.118403
    19  H    2.198448   3.488268   3.965484   3.486164   2.187059
    20  H    2.187764   2.753394   3.339473   2.763321   2.187079
    21  H    2.202448   2.748927   3.321383   4.309414   3.985950
    22  H    3.364312   4.321036   3.965501   3.486017   2.186966
    23  H    3.964661   4.306178   3.339020   2.763041   2.187070
    24  H    3.488549   3.966007   3.489534   3.965052   3.490003
    25  H    3.362807   2.786854   2.189030   3.486040   3.962639
    26  H    3.970095   3.497459   2.191204   2.763345   3.339667
    27  H    2.385380   3.905295   4.588136   4.691115   3.528145
    28  H    3.156518   4.420451   4.584078   4.682555   3.516265
    29  H    3.160596   4.408089   5.009970   5.509889   4.577188
                    6          7          8          9         10
     6  C    0.000000
     7  C    2.539484   0.000000
     8  C    2.512068   2.539702   0.000000
     9  C    2.947967   1.536281   1.539607   0.000000
    10  C    3.551544   2.484644   2.504799   1.540769   0.000000
    11  N    2.955387   1.502478   2.955983   2.460828   3.807632
    12  H    2.186420   2.183489   3.960368   3.488561   3.965913
    13  H    3.484032   2.733287   4.316393   3.362887   2.786850
    14  H    2.758418   3.468013   4.306631   3.970178   3.497479
    15  H    3.953987   3.921345   3.953776   3.489082   2.183544
    16  H    2.769804   4.311433   3.488341   3.971786   3.487958
    17  H    3.488412   4.311561   2.769724   3.357283   2.765617
    18  H    2.182867   3.987610   2.182889   3.489114   3.951977
    19  H    1.114374   2.831654   2.777362   3.363673   4.320635
    20  H    1.115419   3.505866   3.486943   3.964658   4.306400
    21  H    3.517440   1.114847   3.517864   2.202860   2.749220
    22  H    2.777545   2.832387   1.114350   2.198653   3.488221
    23  H    3.486940   3.506036   1.115417   2.187817   2.752992
    24  H    3.960151   2.183489   2.186470   1.117775   2.185525
    25  H    4.316358   2.733248   3.483898   2.192089   1.115366
    26  H    4.306620   3.467998   2.758132   2.192159   1.115253
    27  H    2.576145   2.102130   3.308886   3.163359   4.424997
    28  H    3.295377   2.102341   2.568633   2.385965   3.906018
    29  H    3.904133   2.093025   3.899232   3.154089   4.403397
                   11         12         13         14         15
    11  N    0.000000
    12  H    2.701971   0.000000
    13  H    4.109917   2.518402   0.000000
    14  H    4.640092   2.521939   1.789044   0.000000
    15  H    5.353156   4.341766   2.511603   2.519721   0.000000
    16  H    5.318554   4.182469   3.778015   2.548238   2.515870
    17  H    5.318793   5.026347   4.347563   3.780114   2.515799
    18  H    4.329776   4.342585   5.016318   4.162364   4.335216
    19  H    2.638428   2.527593   4.355449   3.775764   5.019364
    20  H    3.959989   2.519124   3.769911   2.535361   4.163995
    21  H    2.125971   2.533684   2.523599   3.769260   4.132410
    22  H    2.639718   4.192304   5.062851   5.047440   5.019290
    23  H    3.960754   5.020455   5.043826   5.034412   4.163412
    24  H    2.702364   4.340293   4.190651   5.026027   4.341871
    25  H    4.110056   4.190553   2.584756   3.802136   2.511630
    26  H    4.640352   5.025942   3.802107   4.354556   2.519693
    27  H    1.044561   2.364843   4.342963   4.529324   5.665920
    28  H    1.044529   3.604692   4.825584   5.283422   5.662836
    29  H    1.045009   3.156488   4.471846   5.266802   6.002907
                   16         17         18         19         20
    16  H    0.000000
    17  H    1.790230   0.000000
    18  H    2.515246   2.515224   0.000000
    19  H    3.778592   4.346237   2.507133   0.000000
    20  H    2.551537   3.780038   2.516460   1.784037   0.000000
    21  H    5.039959   5.040223   5.046813   3.850375   4.366405
    22  H    4.346110   3.778292   2.506838   2.576541   3.791750
    23  H    3.779826   2.551235   2.516585   3.791715   4.344867
    24  H    5.026490   4.182879   4.342653   4.191481   5.020361
    25  H    4.347626   3.778246   5.016338   5.062379   5.044055
    26  H    3.780329   2.548593   4.162422   5.047090   5.034668
    27  H    5.235441   5.521127   4.151727   1.989587   3.431862
    28  H    5.510889   5.228071   4.137841   2.878788   4.371953
    29  H    6.234109   6.231930   5.372786   3.581386   4.845717
                   21         22         23         24         25
    21  H    0.000000
    22  H    3.851317   0.000000
    23  H    4.366858   1.783881   0.000000
    24  H    2.534306   2.527709   2.519328   0.000000
    25  H    2.523922   4.355541   3.769562   2.518480   0.000000
    26  H    3.769652   3.775447   2.534798   2.522057   1.789035
    27  H    2.817515   2.895519   4.385925   3.610929   4.826564
    28  H    2.823469   1.979669   3.426858   2.372017   4.347267
    29  H    2.186219   3.576517   4.838868   3.145218   4.467102
                   26         27         28         29
    26  H    0.000000
    27  H    5.290176   0.000000
    28  H    4.530274   1.706591   0.000000
    29  H    5.260069   1.702244   1.702135   0.000000
 Stoichiometry    C10H18N(1+)
 Framework group  C1[X(C10H18N)]
 Deg. of freedom    81
 Full point group                 C1      NOp   1
 Largest Abelian subgroup         C1      NOp   1
 Largest concise Abelian subgroup C1      NOp   1
                         Standard orientation:                         
 ---------------------------------------------------------------------
 Center     Atomic      Atomic             Coordinates (Angstroms)
 Number     Number       Type             X           Y           Z
 ---------------------------------------------------------------------
      1          6           0       -0.499216    1.260350   -0.351712
      2          6           0        0.826951    1.269546   -1.136002
      3          6           0        1.636807    0.005557   -0.792140
      4          6           0        1.947498   -0.004523    0.714330
      5          6           0        0.627971   -0.010160    1.504667
      6          6           0       -0.184986    1.248067    1.155394
      7          6           0       -1.280216    0.005034   -0.769267
      8          6           0       -0.184323   -1.263943    1.138297
      9          6           0       -0.498958   -1.255687   -0.368794
     10          6           0        0.827229   -1.253845   -1.153139
     11          7           0       -2.587811    0.000132   -0.029260
     12          1           0       -1.090599    2.174142   -0.606049
     13          1           0        0.625894    1.307621   -2.232438
     14          1           0        1.415609    2.183509   -0.887132
     15          1           0        2.595018    0.009586   -1.368839
     16          1           0        2.556329    0.888910    0.988044
     17          1           0        2.556752   -0.901280    0.975965
     18          1           0        0.851888   -0.017539    2.600401
     19          1           0       -1.123044    1.275859    1.756315
     20          1           0        0.390491    2.162761    1.431652
     21          1           0       -1.508031    0.012775   -1.860561
     22          1           0       -1.122026   -1.300625    1.739248
     23          1           0        0.391760   -2.182003    1.401828
     24          1           0       -1.090174   -2.166051   -0.635481
     25          1           0        0.626170   -1.277075   -2.249987
     26          1           0        1.416148   -2.170946   -0.916730
     27          1           0       -2.662139    0.853662    0.568294
     28          1           0       -2.655288   -0.852915    0.569738
     29          1           0       -3.372625   -0.003691   -0.719258
 ---------------------------------------------------------------------
 Rotational constants (GHZ):      1.6596029      1.1754923      1.1746702
 Standard basis: 6-311++G(d,p) (5D, 7F)
 There are   379 symmetry adapted cartesian basis functions of A   symmetry.
 There are   368 symmetry adapted basis functions of A   symmetry.
   368 basis functions,   558 primitive gaussians,   379 cartesian basis functions
    42 alpha electrons       42 beta electrons
       nuclear repulsion energy       717.6065794344 Hartrees.
 NAtoms=   29 NActive=   29 NUniq=   29 SFac= 1.00D+00 NAtFMM=   60 NAOKFM=F Big=F
 Integral buffers will be    131072 words long.
 Raffenetti 2 integral format.
 Two-electron integral symmetry is turned on.
 One-electron integrals computed using PRISM.
 NBasis=   368 RedAO= T EigKep=  2.31D-06  NBF=   368
 NBsUse=   368 1.00D-06 EigRej= -1.00D+00 NBFU=   368
 ExpMin= 3.60D-02 ExpMax= 6.29D+03 ExpMxC= 9.49D+02 IAcc=3 IRadAn=         5 AccDes= 0.00D+00
 Harris functional with IExCor=  402 and IRadAn=       5 diagonalized for initial guess.
 HarFok:  IExCor=  402 AccDes= 0.00D+00 IRadAn=         5 IDoV= 1 UseB2=F ITyADJ=14
 ICtDFT=  3500011 ScaDFX=  1.000000  1.000000  1.000000  1.000000
 FoFCou: FMM=F IPFlag=           0 FMFlag=      100000 FMFlg1=           0
         NFxFlg=           0 DoJE=T BraDBF=F KetDBF=T FulRan=T
         wScrn=  0.000000 ICntrl=     500 IOpCl=  0 I1Cent=   200000004 NGrid=           0
         NMat0=    1 NMatS0=      1 NMatT0=    0 NMatD0=    1 NMtDS0=    0 NMtDT0=    0
 Petite list used in FoFCou.
 Keep R1 ints in memory in canonical form, NReq=2332863075.
 Requested convergence on RMS density matrix=1.00D-08 within 128 cycles.
 Requested convergence on MAX density matrix=1.00D-06.
 Requested convergence on             energy=1.00D-06.
 No special actions if energy rises.
 SCF Done:  E(RB3LYP) =  -446.552703734     A.U. after   14 cycles
            NFock= 14  Conv=0.19D-08     -V/T= 2.0057

 **********************************************************************

            Population analysis using the SCF density.

 **********************************************************************

 Orbital symmetries:
       Occupied  (A) (A) (A) (A) (A) (A) (A) (A) (A) (A) (A) (A)
                 (A) (A) (A) (A) (A) (A) (A) (A) (A) (A) (A) (A)
                 (A) (A) (A) (A) (A) (A) (A) (A) (A) (A) (A) (A)
                 (A) (A) (A) (A) (A) (A)
       Virtual   (A) (A) (A) (A) (A) (A) (A) (A) (A) (A) (A) (A)
                 (A) (A) (A) (A) (A) (A) (A) (A) (A) (A) (A) (A)
                 (A) (A) (A) (A) (A) (A) (A) (A) (A) (A) (A) (A)
                 (A) (A) (A) (A) (A) (A) (A) (A) (A) (A) (A) (A)
                 (A) (A) (A) (A) (A) (A) (A) (A) (A) (A) (A) (A)
                 (A) (A) (A) (A) (A) (A) (A) (A) (A) (A) (A) (A)
                 (A) (A) (A) (A) (A) (A) (A) (A) (A) (A) (A) (A)
                 (A) (A) (A) (A) (A) (A) (A) (A) (A) (A) (A) (A)
                 (A) (A) (A) (A) (A) (A) (A) (A) (A) (A) (A) (A)
                 (A) (A) (A) (A) (A) (A) (A) (A) (A) (A) (A) (A)
                 (A) (A) (A) (A) (A) (A) (A) (A) (A) (A) (A) (A)
                 (A) (A) (A) (A) (A) (A) (A) (A) (A) (A) (A) (A)
                 (A) (A) (A) (A) (A) (A) (A) (A) (A) (A) (A) (A)
                 (A) (A) (A) (A) (A) (A) (A) (A) (A) (A) (A) (A)
                 (A) (A) (A) (A) (A) (A) (A) (A) (A) (A) (A) (A)
                 (A) (A) (A) (A) (A) (A) (A) (A) (A) (A) (A) (A)
                 (A) (A) (A) (A) (A) (A) (A) (A) (A) (A) (A) (A)
                 (A) (A) (A) (A) (A) (A) (A) (A) (A) (A) (A) (A)
                 (A) (A) (A) (A) (A) (A) (A) (A) (A) (A) (A) (A)
                 (A) (A) (A) (A) (A) (A) (A) (A) (A) (A) (A) (A)
                 (A) (A) (A) (A) (A) (A) (A) (A) (A) (A) (A) (A)
                 (A) (A) (A) (A) (A) (A) (A) (A) (A) (A) (A) (A)
                 (A) (A) (A) (A) (A) (A) (A) (A) (A) (A) (A) (A)
                 (A) (A) (A) (A) (A) (A) (A) (A) (A) (A) (A) (A)
                 (A) (A) (A) (A) (A) (A) (A) (A) (A) (A) (A) (A)
                 (A) (A) (A) (A) (A) (A) (A) (A) (A) (A) (A) (A)
                 (A) (A) (A) (A) (A) (A) (A) (A) (A) (A) (A) (A)
                 (A) (A)
 The electronic state is 1-A.
 Alpha  occ. eigenvalues --  -14.61778 -10.39908 -10.33766 -10.33763 -10.31837
 Alpha  occ. eigenvalues --  -10.31827 -10.31068 -10.30515 -10.30514 -10.30268
 Alpha  occ. eigenvalues --  -10.29046  -1.18400  -1.02216  -0.92835  -0.92449
 Alpha  occ. eigenvalues --   -0.90927  -0.82872  -0.81199  -0.77830  -0.77110
 Alpha  occ. eigenvalues --   -0.73667  -0.71889  -0.71870  -0.68117  -0.65241
 Alpha  occ. eigenvalues --   -0.60567  -0.59571  -0.59276  -0.56711  -0.56258
 Alpha  occ. eigenvalues --   -0.55238  -0.54261  -0.53976  -0.53540  -0.49359
 Alpha  occ. eigenvalues --   -0.48473  -0.48122  -0.47726  -0.46762  -0.43208
 Alpha  occ. eigenvalues --   -0.43008  -0.42463
 Alpha virt. eigenvalues --   -0.18491  -0.14367  -0.13068  -0.12388  -0.10372
 Alpha virt. eigenvalues --   -0.10163  -0.08870  -0.08513  -0.08493  -0.07874
 Alpha virt. eigenvalues --   -0.06418  -0.05980  -0.05920  -0.05298  -0.04486
 Alpha virt. eigenvalues --   -0.04397  -0.04080  -0.03748  -0.02758  -0.02672
 Alpha virt. eigenvalues --   -0.01843  -0.01576  -0.01487  -0.00673  -0.00559
 Alpha virt. eigenvalues --   -0.00116   0.00416   0.00818   0.01250   0.01638
 Alpha virt. eigenvalues --    0.02021   0.02200   0.02290   0.02303   0.02874
 Alpha virt. eigenvalues --    0.02981   0.03409   0.04294   0.04602   0.04682
 Alpha virt. eigenvalues --    0.05297   0.05845   0.05856   0.05884   0.06192
 Alpha virt. eigenvalues --    0.06667   0.06714   0.07019   0.07314   0.07492
 Alpha virt. eigenvalues --    0.07849   0.08280   0.08432   0.08541   0.08555
 Alpha virt. eigenvalues --    0.08799   0.09476   0.09889   0.10268   0.10381
 Alpha virt. eigenvalues --    0.11051   0.11202   0.12556   0.12867   0.12928
 Alpha virt. eigenvalues --    0.13585   0.14006   0.14400   0.14997   0.15466
 Alpha virt. eigenvalues --    0.15935   0.15978   0.16594   0.17390   0.18238
 Alpha virt. eigenvalues --    0.18752   0.20930   0.20953   0.21956   0.22063
 Alpha virt. eigenvalues --    0.22367   0.22482   0.23043   0.23627   0.24054
 Alpha virt. eigenvalues --    0.24330   0.24862   0.25295   0.25844   0.28168
 Alpha virt. eigenvalues --    0.29105   0.29573   0.34103   0.34374   0.35283
 Alpha virt. eigenvalues --    0.36908   0.37067   0.37484   0.37764   0.37950
 Alpha virt. eigenvalues --    0.38497   0.38958   0.40833   0.43086   0.45339
 Alpha virt. eigenvalues --    0.48499   0.50162   0.50918   0.51137   0.51800
 Alpha virt. eigenvalues --    0.52010   0.52660   0.53045   0.53472   0.53643
 Alpha virt. eigenvalues --    0.54613   0.55349   0.55870   0.56052   0.57173
 Alpha virt. eigenvalues --    0.57935   0.58048   0.59432   0.59667   0.60380
 Alpha virt. eigenvalues --    0.60553   0.60628   0.61610   0.62346   0.62675
 Alpha virt. eigenvalues --    0.63003   0.63273   0.64206   0.64686   0.66918
 Alpha virt. eigenvalues --    0.67053   0.69654   0.69987   0.71907   0.72932
 Alpha virt. eigenvalues --    0.74352   0.77730   0.78353   0.79857   0.81291
 Alpha virt. eigenvalues --    0.81821   0.82398   0.90760   0.90798   0.92163
 Alpha virt. eigenvalues --    0.96023   0.96495   1.02686   1.04389   1.04911
 Alpha virt. eigenvalues --    1.05766   1.06024   1.08171   1.09465   1.10376
 Alpha virt. eigenvalues --    1.17613   1.20971   1.24710   1.25713   1.30039
 Alpha virt. eigenvalues --    1.31552   1.36051   1.36405   1.36470   1.38058
 Alpha virt. eigenvalues --    1.38154   1.39024   1.39512   1.39827   1.40583
 Alpha virt. eigenvalues --    1.41032   1.41997   1.44406   1.44875   1.46080
 Alpha virt. eigenvalues --    1.46631   1.47361   1.48420   1.49746   1.53159
 Alpha virt. eigenvalues --    1.54083   1.55996   1.56777   1.57159   1.58512
 Alpha virt. eigenvalues --    1.59154   1.59636   1.61185   1.61268   1.62551
 Alpha virt. eigenvalues --    1.64142   1.65445   1.65539   1.66777   1.67068
 Alpha virt. eigenvalues --    1.68527   1.71041   1.71323   1.72151   1.72930
 Alpha virt. eigenvalues --    1.73683   1.74396   1.75034   1.75377   1.76800
 Alpha virt. eigenvalues --    1.79106   1.79468   1.80570   1.82705   1.86071
 Alpha virt. eigenvalues --    1.86162   1.88741   1.89081   1.89790   1.91018
 Alpha virt. eigenvalues --    1.93678   1.97188   1.97580   2.02588   2.03073
 Alpha virt. eigenvalues --    2.04485   2.05786   2.08142   2.10170   2.10593
 Alpha virt. eigenvalues --    2.14063   2.15556   2.18267   2.18525   2.19866
 Alpha virt. eigenvalues --    2.20736   2.21339   2.22538   2.22771   2.23744
 Alpha virt. eigenvalues --    2.26170   2.28070   2.31666   2.33213   2.37984
 Alpha virt. eigenvalues --    2.38503   2.39869   2.40774   2.40883   2.43119
 Alpha virt. eigenvalues --    2.47092   2.48032   2.48512   2.49519   2.52502
 Alpha virt. eigenvalues --    2.54609   2.55007   2.55306   2.60456   2.61333
 Alpha virt. eigenvalues --    2.61820   2.64034   2.65252   2.68985   2.71786
 Alpha virt. eigenvalues --    2.73401   2.74388   2.75481   2.76110   2.76628
 Alpha virt. eigenvalues --    2.78118   2.78712   2.81827   2.82164   2.82692
 Alpha virt. eigenvalues --    2.83880   2.85250   2.88151   2.95829   2.96918
 Alpha virt. eigenvalues --    2.98191   3.00087   3.00905   3.02803   3.04059
 Alpha virt. eigenvalues --    3.07394   3.07529   3.09572   3.18705   3.20674
 Alpha virt. eigenvalues --    3.31246   3.33867   3.33970   3.35616   3.38678
 Alpha virt. eigenvalues --    3.61475   3.62249   3.64311   3.67544   3.68720
 Alpha virt. eigenvalues --    3.83432   3.87258   3.89753   3.97000   4.00708
 Alpha virt. eigenvalues --    4.01045   4.09780   4.14708   4.16767   4.17784
 Alpha virt. eigenvalues --    4.18637   4.18995   4.45323   4.49644   4.55084
 Alpha virt. eigenvalues --   23.60317  23.66630  23.76864  23.77828  23.80154
 Alpha virt. eigenvalues --   23.83372  23.84170  23.84288  23.85898  23.87223
 Alpha virt. eigenvalues --   35.32139
          Condensed to atoms (all electrons):
               1          2          3          4          5          6
     1  C    8.216803  -0.321571  -0.489681   0.267979  -0.414234  -0.356925
     2  C   -0.321571   5.983273  -0.132733  -0.000622   0.181059   0.002916
     3  C   -0.489681  -0.132733   6.614932  -0.193754  -0.415429   0.398672
     4  C    0.267979  -0.000622  -0.193754   5.934399  -0.149170  -0.022455
     5  C   -0.414234   0.181059  -0.415429  -0.149170   6.215801  -0.225760
     6  C   -0.356925   0.002916   0.398672  -0.022455  -0.225760   6.014417
     7  C   -2.668545   0.252312  -0.114554  -0.223269   1.024467  -0.192973
     8  C    0.028809  -0.217882   0.398458  -0.021575  -0.227886   0.358261
     9  C    0.680925   0.225587  -0.489226   0.269883  -0.409818   0.025574
    10  C    0.223096   0.025599  -0.134677  -0.004633   0.186690  -0.219934
    11  N    0.253026  -0.030683   0.143826   0.014755  -0.221824   0.156795
    12  H    0.480446  -0.073545   0.003966   0.019704  -0.019551  -0.034900
    13  H   -0.080647   0.473352  -0.079273  -0.018597   0.030826  -0.023369
    14  H   -0.068675   0.491835  -0.079242   0.006420   0.001113  -0.024834
    15  H   -0.021501  -0.040376   0.427596  -0.046367  -0.010858   0.034839
    16  H    0.010597   0.013498  -0.092065   0.480791  -0.061355  -0.014629
    17  H    0.052103  -0.006254  -0.091806   0.480531  -0.061053  -0.014748
    18  H   -0.034335   0.013816  -0.001714  -0.046019   0.427633  -0.050649
    19  H   -0.042002   0.011940   0.040455  -0.031002  -0.031693   0.370614
    20  H   -0.077850   0.009513   0.013295   0.009058  -0.089105   0.492155
    21  H   -0.085966   0.019531  -0.058149   0.011324   0.040188  -0.039503
    22  H    0.050151  -0.010933   0.041713  -0.031514  -0.033033   0.008269
    23  H    0.032880  -0.015581   0.013378   0.009125  -0.088743   0.010850
    24  H   -0.011665   0.022118   0.003770   0.020028  -0.020357   0.015569
    25  H   -0.037647   0.005000  -0.079750  -0.018660   0.031166  -0.012599
    26  H    0.026796  -0.012771  -0.079006   0.006100   0.001458  -0.011263
    27  H    0.022760  -0.001249  -0.003626   0.000504   0.010963  -0.014249
    28  H   -0.020637   0.002959  -0.004078   0.000411   0.011705  -0.019306
    29  H   -0.010917   0.000095   0.004623  -0.006538   0.003175   0.005044
               7          8          9         10         11         12
     1  C   -2.668545   0.028809   0.680925   0.223096   0.253026   0.480446
     2  C    0.252312  -0.217882   0.225587   0.025599  -0.030683  -0.073545
     3  C   -0.114554   0.398458  -0.489226  -0.134677   0.143826   0.003966
     4  C   -0.223269  -0.021575   0.269883  -0.004633   0.014755   0.019704
     5  C    1.024467  -0.227886  -0.409818   0.186690  -0.221824  -0.019551
     6  C   -0.192973   0.358261   0.025574  -0.219934   0.156795  -0.034900
     7  C   12.126516  -0.194787  -2.656373   0.259630  -1.167196  -0.118054
     8  C   -0.194787   6.014655  -0.357208   0.000827   0.156442   0.015486
     9  C   -2.656373  -0.357208   8.204228  -0.322283   0.249875  -0.012443
    10  C    0.259630   0.000827  -0.322283   5.985490  -0.033424   0.022038
    11  N   -1.167196   0.156442   0.249875  -0.033424   6.778138   0.016697
    12  H   -0.118054   0.015486  -0.012443   0.022038   0.016697   0.481872
    13  H    0.085975  -0.012335  -0.037710   0.005133  -0.014878  -0.011164
    14  H    0.013338  -0.011188   0.027143  -0.012831  -0.004686  -0.010073
    15  H   -0.000035   0.034769  -0.021699  -0.040460   0.005921  -0.001108
    16  H   -0.035517  -0.014753   0.052340  -0.006334   0.000834   0.000450
    17  H   -0.034925  -0.014487   0.010029   0.013166   0.000824   0.001798
    18  H    0.095746  -0.050373  -0.033719   0.014006  -0.016368  -0.000683
    19  H   -0.129244   0.005617   0.052996  -0.009849   0.052462  -0.007405
    20  H   -0.055126   0.010829   0.033473  -0.015786   0.012445  -0.011135
    21  H    0.607151  -0.039634  -0.085159   0.020062  -0.123211  -0.002363
    22  H   -0.119603   0.372587  -0.050049   0.011509   0.049468  -0.002364
    23  H   -0.054139   0.492232  -0.078750   0.009210   0.012373   0.001488
    24  H   -0.121390  -0.033925   0.483545  -0.075376   0.017836  -0.001584
    25  H    0.085515  -0.023817  -0.080463   0.474679  -0.014905   0.000189
    26  H    0.014165  -0.024650  -0.069437   0.491795  -0.004769   0.001303
    27  H    0.040709  -0.018874  -0.019538   0.002959   0.299821  -0.005461
    28  H    0.043165  -0.013968   0.022059  -0.000932   0.297739   0.001245
    29  H    0.033117   0.004797  -0.011646   0.000400   0.291471  -0.001745
              13         14         15         16         17         18
     1  C   -0.080647  -0.068675  -0.021501   0.010597   0.052103  -0.034335
     2  C    0.473352   0.491835  -0.040376   0.013498  -0.006254   0.013816
     3  C   -0.079273  -0.079242   0.427596  -0.092065  -0.091806  -0.001714
     4  C   -0.018597   0.006420  -0.046367   0.480791   0.480531  -0.046019
     5  C    0.030826   0.001113  -0.010858  -0.061355  -0.061053   0.427633
     6  C   -0.023369  -0.024834   0.034839  -0.014629  -0.014748  -0.050649
     7  C    0.085975   0.013338  -0.000035  -0.035517  -0.034925   0.095746
     8  C   -0.012335  -0.011188   0.034769  -0.014753  -0.014487  -0.050373
     9  C   -0.037710   0.027143  -0.021699   0.052340   0.010029  -0.033719
    10  C    0.005133  -0.012831  -0.040460  -0.006334   0.013166   0.014006
    11  N   -0.014878  -0.004686   0.005921   0.000834   0.000824  -0.016368
    12  H   -0.011164  -0.010073  -0.001108   0.000450   0.001798  -0.000683
    13  H    0.498998   0.010712  -0.008683  -0.001762  -0.000393   0.001254
    14  H    0.010712   0.467882  -0.007310   0.006239  -0.001258   0.000311
    15  H   -0.008683  -0.007310   0.456968  -0.008247  -0.008222  -0.001472
    16  H   -0.001762   0.006239  -0.008247   0.486464   0.010422  -0.006349
    17  H   -0.000393  -0.001258  -0.008222   0.010422   0.486362  -0.006322
    18  H    0.001254   0.000311  -0.001472  -0.006349  -0.006322   0.454330
    19  H   -0.001971  -0.001105   0.001985  -0.001672  -0.002619  -0.011409
    20  H   -0.002175   0.002779   0.001400   0.004516  -0.001438  -0.007056
    21  H    0.011444   0.001496  -0.003517  -0.000349  -0.000340   0.002333
    22  H    0.000651  -0.000714   0.002029  -0.002639  -0.001661  -0.011490
    23  H   -0.001146  -0.000583   0.001409  -0.001413   0.004530  -0.007051
    24  H    0.000164   0.001317  -0.001118   0.001806   0.000442  -0.000690
    25  H    0.006312  -0.002081  -0.008713  -0.000396  -0.001764   0.001260
    26  H   -0.002069  -0.000679  -0.007285  -0.001257   0.006196   0.000321
    27  H    0.000511   0.000244  -0.000184  -0.000289   0.000222   0.000813
    28  H   -0.000078   0.000011  -0.000201   0.000226  -0.000293   0.000880
    29  H    0.000029  -0.000206   0.000330  -0.000194  -0.000194  -0.000377
              19         20         21         22         23         24
     1  C   -0.042002  -0.077850  -0.085966   0.050151   0.032880  -0.011665
     2  C    0.011940   0.009513   0.019531  -0.010933  -0.015581   0.022118
     3  C    0.040455   0.013295  -0.058149   0.041713   0.013378   0.003770
     4  C   -0.031002   0.009058   0.011324  -0.031514   0.009125   0.020028
     5  C   -0.031693  -0.089105   0.040188  -0.033033  -0.088743  -0.020357
     6  C    0.370614   0.492155  -0.039503   0.008269   0.010850   0.015569
     7  C   -0.129244  -0.055126   0.607151  -0.119603  -0.054139  -0.121390
     8  C    0.005617   0.010829  -0.039634   0.372587   0.492232  -0.033925
     9  C    0.052996   0.033473  -0.085159  -0.050049  -0.078750   0.483545
    10  C   -0.009849  -0.015786   0.020062   0.011509   0.009210  -0.075376
    11  N    0.052462   0.012445  -0.123211   0.049468   0.012373   0.017836
    12  H   -0.007405  -0.011135  -0.002363  -0.002364   0.001488  -0.001584
    13  H   -0.001971  -0.002175   0.011444   0.000651  -0.001146   0.000164
    14  H   -0.001105   0.002779   0.001496  -0.000714  -0.000583   0.001317
    15  H    0.001985   0.001400  -0.003517   0.002029   0.001409  -0.001118
    16  H   -0.001672   0.004516  -0.000349  -0.002639  -0.001413   0.001806
    17  H   -0.002619  -0.001438  -0.000340  -0.001661   0.004530   0.000442
    18  H   -0.011409  -0.007056   0.002333  -0.011490  -0.007051  -0.000690
    19  H    0.647055   0.005681  -0.007536  -0.003475   0.000364  -0.002361
    20  H    0.005681   0.445093  -0.002595   0.000417   0.000183   0.001492
    21  H   -0.007536  -0.002595   0.406469  -0.007302  -0.002558  -0.002403
    22  H   -0.003475   0.000417  -0.007302   0.648880   0.005724  -0.007730
    23  H    0.000364   0.000183  -0.002558   0.005724   0.445093  -0.011023
    24  H   -0.002361   0.001492  -0.002403  -0.007730  -0.011023   0.481705
    25  H    0.000679  -0.001152   0.011378  -0.002034  -0.002193  -0.011241
    26  H   -0.000684  -0.000579   0.001511  -0.001115   0.002721  -0.010047
    27  H   -0.002079   0.001561   0.006573  -0.000366  -0.002022   0.001253
    28  H   -0.000692  -0.002071   0.006717  -0.001381   0.001580  -0.005596
    29  H    0.006637   0.000306  -0.001405   0.006574   0.000297  -0.001859
              25         26         27         28         29
     1  C   -0.037647   0.026796   0.022760  -0.020637  -0.010917
     2  C    0.005000  -0.012771  -0.001249   0.002959   0.000095
     3  C   -0.079750  -0.079006  -0.003626  -0.004078   0.004623
     4  C   -0.018660   0.006100   0.000504   0.000411  -0.006538
     5  C    0.031166   0.001458   0.010963   0.011705   0.003175
     6  C   -0.012599  -0.011263  -0.014249  -0.019306   0.005044
     7  C    0.085515   0.014165   0.040709   0.043165   0.033117
     8  C   -0.023817  -0.024650  -0.018874  -0.013968   0.004797
     9  C   -0.080463  -0.069437  -0.019538   0.022059  -0.011646
    10  C    0.474679   0.491795   0.002959  -0.000932   0.000400
    11  N   -0.014905  -0.004769   0.299821   0.297739   0.291471
    12  H    0.000189   0.001303  -0.005461   0.001245  -0.001745
    13  H    0.006312  -0.002069   0.000511  -0.000078   0.000029
    14  H   -0.002081  -0.000679   0.000244   0.000011  -0.000206
    15  H   -0.008713  -0.007285  -0.000184  -0.000201   0.000330
    16  H   -0.000396  -0.001257  -0.000289   0.000226  -0.000194
    17  H   -0.001764   0.006196   0.000222  -0.000293  -0.000194
    18  H    0.001260   0.000321   0.000813   0.000880  -0.000377
    19  H    0.000679  -0.000684  -0.002079  -0.000692   0.006637
    20  H   -0.001152  -0.000579   0.001561  -0.002071   0.000306
    21  H    0.011378   0.001511   0.006573   0.006717  -0.001405
    22  H   -0.002034  -0.001115  -0.000366  -0.001381   0.006574
    23  H   -0.002193   0.002721  -0.002022   0.001580   0.000297
    24  H   -0.011241  -0.010047   0.001253  -0.005596  -0.001859
    25  H    0.499138   0.010756  -0.000103   0.000537   0.000044
    26  H    0.010756   0.467835   0.000011   0.000244  -0.000199
    27  H   -0.000103   0.000011   0.367352  -0.019106  -0.008864
    28  H    0.000537   0.000244  -0.019106   0.368566  -0.008784
    29  H    0.000044  -0.000199  -0.008864  -0.008784   0.362893
 Mulliken charges:
               1
     1  C    0.396428
     2  C   -0.870204
     3  C    0.434080
     4  C   -0.716836
     5  C    0.313625
     6  C   -0.615879
     7  C   -0.796079
     8  C   -0.616428
     9  C    0.397865
    10  C   -0.869770
    11  N   -0.178804
    12  H    0.266897
    13  H    0.170887
    14  H    0.194628
    15  H    0.270109
    16  H    0.181037
    17  H    0.181152
    18  H    0.273374
    19  H    0.090314
    20  H    0.221874
    21  H    0.315815
    22  H    0.089431
    23  H    0.221766
    24  H    0.267322
    25  H    0.170867
    26  H    0.194596
    27  H    0.339755
    28  H    0.339079
    29  H    0.333098
 Sum of Mulliken charges =   1.00000
 Mulliken charges with hydrogens summed into heavy atoms:
               1
     1  C    0.663325
     2  C   -0.504689
     3  C    0.704190
     4  C   -0.354648
     5  C    0.586999
     6  C   -0.303691
     7  C   -0.480264
     8  C   -0.305231
     9  C    0.665187
    10  C   -0.504307
    11  N    0.833128
 Electronic spatial extent (au):  <R**2>=           1397.1234
 Charge=              1.0000 electrons
 Dipole moment (field-independent basis, Debye):
    X=             -7.5810    Y=              0.0008    Z=             -0.3244  Tot=              7.5879
 Quadrupole moment (field-independent basis, Debye-Ang):
   XX=            -37.0267   YY=            -61.7387   ZZ=            -62.2757
   XY=             -0.0071   XZ=              1.1162   YZ=              0.0035
 Traceless Quadrupole moment (field-independent basis, Debye-Ang):
   XX=             16.6536   YY=             -8.0583   ZZ=             -8.5954
   XY=             -0.0071   XZ=              1.1162   YZ=              0.0035
 Octapole moment (field-independent basis, Debye-Ang**2):
  XXX=            -89.2682  YYY=             -0.0174  ZZZ=             -3.0966  XYY=             -4.4403
  XXY=              0.0172  XXZ=             -4.7020  XZZ=             -7.6037  YZZ=              0.0201
  YYZ=              2.1226  XYZ=              0.0021
 Hexadecapole moment (field-independent basis, Debye-Ang**3):
 XXXX=           -540.1238 YYYY=           -504.1049 ZZZZ=           -506.1693 XXXY=             -0.0170
 XXXZ=             16.4007 YYYX=             -0.1059 YYYZ=              0.1008 ZZZX=              7.9745
 ZZZY=             -0.0921 XXYY=           -201.3129 XXZZ=           -200.3577 YYZZ=           -172.6555
 XXYZ=              0.0893 YYXZ=              0.2611 ZZXY=              0.0241
 N-N= 7.176065794344D+02 E-N=-2.456316588405D+03  KE= 4.440215192371D+02

 **********************************************************************

            Electrostatic Properties Using The SCF Density

 **********************************************************************

       Atomic Center    1 is at  -0.499216  1.260350 -0.351712
       Atomic Center    2 is at   0.826951  1.269546 -1.136002
       Atomic Center    3 is at   1.636807  0.005557 -0.792140
       Atomic Center    4 is at   1.947498 -0.004523  0.714330
       Atomic Center    5 is at   0.627971 -0.010160  1.504667
       Atomic Center    6 is at  -0.184986  1.248067  1.155394
       Atomic Center    7 is at  -1.280216  0.005034 -0.769267
       Atomic Center    8 is at  -0.184323 -1.263943  1.138297
       Atomic Center    9 is at  -0.498958 -1.255687 -0.368794
       Atomic Center   10 is at   0.827229 -1.253845 -1.153139
       Atomic Center   11 is at  -2.587811  0.000132 -0.029260
       Atomic Center   12 is at  -1.090599  2.174142 -0.606049
       Atomic Center   13 is at   0.625894  1.307621 -2.232438
       Atomic Center   14 is at   1.415609  2.183509 -0.887132
       Atomic Center   15 is at   2.595018  0.009586 -1.368839
       Atomic Center   16 is at   2.556329  0.888910  0.988044
       Atomic Center   17 is at   2.556752 -0.901280  0.975965
       Atomic Center   18 is at   0.851888 -0.017539  2.600401
       Atomic Center   19 is at  -1.123044  1.275859  1.756315
       Atomic Center   20 is at   0.390491  2.162761  1.431652
       Atomic Center   21 is at  -1.508031  0.012775 -1.860561
       Atomic Center   22 is at  -1.122026 -1.300625  1.739248
       Atomic Center   23 is at   0.391760 -2.182003  1.401828
       Atomic Center   24 is at  -1.090174 -2.166051 -0.635481
       Atomic Center   25 is at   0.626170 -1.277075 -2.249987
       Atomic Center   26 is at   1.416148 -2.170946 -0.916730
       Atomic Center   27 is at  -2.662139  0.853662  0.568294
       Atomic Center   28 is at  -2.655288 -0.852915  0.569738
       Atomic Center   29 is at  -3.372625 -0.003691 -0.719258
 -----------------------------------------------------------------

              Electrostatic Properties (Atomic Units)

 -----------------------------------------------------------------
    Center     Electric         -------- Electric Field --------
               Potential          X             Y             Z
 -----------------------------------------------------------------
    1 Atom    -14.607194      0.003149      0.005452     -0.000744
    2 Atom    -14.640240      0.003289      0.000276     -0.002313
    3 Atom    -14.641341      0.004093      0.000008     -0.000969
    4 Atom    -14.654941      0.002343     -0.000003      0.000184
    5 Atom    -14.633417      0.003023     -0.000022      0.004008
    6 Atom    -14.627259      0.003080      0.000130      0.001888
    7 Atom    -14.547752      0.014939      0.000055     -0.006352
    8 Atom    -14.627159      0.003101     -0.000145      0.001869
    9 Atom    -14.607160      0.003140     -0.005461     -0.000827
   10 Atom    -14.640221      0.003295     -0.000241     -0.002318
   11 Atom    -18.093448      0.002318      0.000017     -0.002475
   12 Atom     -0.968098     -0.002852      0.004388     -0.002799
   13 Atom     -0.994636     -0.000539      0.001363     -0.005215
   14 Atom     -0.993707      0.000658      0.003626      0.000849
   15 Atom     -1.006848      0.001273      0.000011     -0.001891
   16 Atom     -1.007821      0.002859      0.003124      0.001651
   17 Atom     -1.007827      0.002863     -0.003145      0.001610
   18 Atom     -1.000009     -0.000149     -0.000020      0.002468
   19 Atom     -0.973254     -0.004967      0.002330      0.008212
   20 Atom     -0.980937     -0.000604      0.004029      0.000171
   21 Atom     -0.928797     -0.001127      0.000003     -0.003020
   22 Atom     -0.973083     -0.005014     -0.002464      0.008211
   23 Atom     -0.980834     -0.000621     -0.004041      0.000108
   24 Atom     -0.968142     -0.002830     -0.004351     -0.002843
   25 Atom     -0.994625     -0.000536     -0.001289     -0.005232
   26 Atom     -0.993700      0.000653     -0.003638      0.000799
   27 Atom     -0.772447     -0.004845      0.000867      0.004529
   28 Atom     -0.772450     -0.004742     -0.000910      0.004601
   29 Atom     -0.772037     -0.006141     -0.000039      0.003539
 -----------------------------------------------------------------
 -----------------------------------------------------
    Center         ---- Electric Field Gradient ----
                     XX            YY            ZZ
 -----------------------------------------------------
    1 Atom     -500.283220   -500.384532   -500.271252
    2 Atom     -500.400018   -500.303466   -500.334888
    3 Atom     -500.222582   -500.290619   -500.221684
    4 Atom     -500.373528   -500.288473   -500.360244
    5 Atom     -500.250279   -500.306579   -500.188379
    6 Atom     -500.376840   -500.295049   -500.408235
    7 Atom     -500.990516   -500.349662   -500.606150
    8 Atom     -500.377920   -500.295662   -500.408479
    9 Atom     -500.282973   -500.384546   -500.269879
   10 Atom     -500.400071   -500.302906   -500.335308
   11 Atom     -812.448828   -812.522611   -812.510179
   12 Atom       -1.799613     -1.937429     -1.700190
   13 Atom       -1.690830     -1.671543     -2.052413
   14 Atom       -1.772493     -1.925612     -1.683225
   15 Atom       -1.953010     -1.674751     -1.775360
   16 Atom       -1.785616     -1.925617     -1.695463
   17 Atom       -1.785796     -1.927527     -1.693427
   18 Atom       -1.690637     -1.678118     -2.042954
   19 Atom       -1.997036     -1.689721     -1.810771
   20 Atom       -1.760114     -1.919986     -1.681443
   21 Atom       -1.712297     -1.665073     -2.036658
   22 Atom       -1.997187     -1.689876     -1.810831
   23 Atom       -1.760242     -1.921778     -1.679274
   24 Atom       -1.799399     -1.935502     -1.702134
   25 Atom       -1.690822     -1.671305     -2.052632
   26 Atom       -1.772593     -1.927522     -1.681242
   27 Atom       -1.526598     -1.821190     -1.670453
   28 Atom       -1.526031     -1.820719     -1.671107
   29 Atom       -1.785573     -1.531468     -1.727990
 -----------------------------------------------------
 -----------------------------------------------------
    Center         ---- Electric Field Gradient ----
                     XY            XZ            YZ
 -----------------------------------------------------
    1 Atom       -0.056614     -0.041871     -0.040605
    2 Atom        0.006145      0.060800      0.017723
    3 Atom        0.000210     -0.031675     -0.000481
    4 Atom       -0.000123      0.014645      0.000488
    5 Atom        0.000020     -0.015517     -0.000849
    6 Atom        0.013393      0.013614     -0.009993
    7 Atom       -0.002198      0.331480      0.001867
    8 Atom       -0.013522      0.013707      0.011615
    9 Atom        0.057546     -0.041286      0.039188
   10 Atom       -0.006993      0.060766     -0.017284
   11 Atom        0.000357     -0.045692     -0.000800
   12 Atom        0.165160     -0.047970      0.071215
   13 Atom        0.001824     -0.071725      0.010955
   14 Atom       -0.167435     -0.045436     -0.075065
   15 Atom       -0.001182      0.169228      0.000702
   16 Atom       -0.171006     -0.050518     -0.077584
   17 Atom        0.171739     -0.048241      0.074431
   18 Atom        0.000494     -0.073767      0.002461
   19 Atom        0.003103      0.175681     -0.005393
   20 Atom       -0.164695     -0.048862     -0.076855
   21 Atom        0.000507     -0.075442      0.002619
   22 Atom       -0.005622      0.175704      0.007240
   23 Atom        0.165454     -0.046604      0.073487
   24 Atom       -0.164465     -0.050218     -0.074393
   25 Atom       -0.000854     -0.071742     -0.005795
   26 Atom        0.168077     -0.043168      0.071730
   27 Atom        0.027731      0.020446     -0.208945
   28 Atom       -0.025330      0.018848      0.209328
   29 Atom       -0.001234     -0.224378     -0.001092
 -----------------------------------------------------
 -----------------------------------------------------
    Center         ---- Electric Field Gradient ----
                   ----       Eigenvalues       ----
 -----------------------------------------------------
    1 Atom     -500.428792   -500.275712   -500.234499
    2 Atom     -500.436537   -500.319433   -500.282402
    3 Atom     -500.290622   -500.253811   -500.190452
    4 Atom     -500.382968   -500.350808   -500.288470
    5 Atom     -500.306585   -500.253951   -500.184701
    6 Atom     -500.414987   -500.372751   -500.292385
    7 Atom     -501.181505   -500.415175   -500.349648
    8 Atom     -500.415802   -500.373528   -500.292731
    9 Atom     -500.428342   -500.275043   -500.234013
   10 Atom     -500.436610   -500.319360   -500.282315
   11 Atom     -812.534561   -812.522592   -812.424465
   12 Atom       -2.067548     -1.689581     -1.680102
   13 Atom       -2.066433     -1.677134     -1.671219
   14 Atom       -2.053916     -1.666298     -1.661116
   15 Atom       -2.055313     -1.674746     -1.673062
   16 Atom       -2.063669     -1.672937     -1.670090
   17 Atom       -2.063690     -1.672954     -1.670106
   18 Atom       -2.057792     -1.678101     -1.675816
   19 Atom       -2.102815     -1.705634     -1.689079
   20 Atom       -2.045877     -1.658877     -1.656789
   21 Atom       -2.053365     -1.695609     -1.665054
   22 Atom       -2.103068     -1.705806     -1.689021
   23 Atom       -2.045785     -1.658791     -1.656717
   24 Atom       -2.067489     -1.689479     -1.680067
   25 Atom       -2.066425     -1.677126     -1.671207
   26 Atom       -2.053920     -1.666313     -1.661125
   27 Atom       -1.970616     -1.524612     -1.523014
   28 Atom       -1.970448     -1.524526     -1.522883
   29 Atom       -1.983005     -1.531462     -1.530564
 -----------------------------------------------------
 -----------------------------------------------------
    Center         ---- Electric Field Gradient ----
                       ( tensor representation )
                   3XX-RR        3YY-RR        3ZZ-RR
 -----------------------------------------------------
    1 Atom        0.029781     -0.071531      0.041749
    2 Atom       -0.053894      0.042658      0.011236
    3 Atom        0.022380     -0.045657      0.023277
    4 Atom       -0.032780      0.052276     -0.019496
    5 Atom       -0.001867     -0.058166      0.060033
    6 Atom       -0.016798      0.064992     -0.048193
    7 Atom       -0.341740      0.299114      0.042626
    8 Atom       -0.017233      0.065025     -0.047792
    9 Atom        0.029493     -0.072080      0.042587
   10 Atom       -0.053977      0.043189      0.010787
   11 Atom        0.045045     -0.028739     -0.016306
   12 Atom        0.012797     -0.125018      0.112221
   13 Atom        0.114098      0.133385     -0.247484
   14 Atom        0.021283     -0.131835      0.110552
   15 Atom       -0.151969      0.126289      0.025680
   16 Atom        0.016616     -0.123385      0.106769
   17 Atom        0.016454     -0.125277      0.108823
   18 Atom        0.113266      0.125785     -0.239051
   19 Atom       -0.164526      0.142788      0.021738
   20 Atom        0.027067     -0.132805      0.105738
   21 Atom        0.092379      0.139603     -0.231982
   22 Atom       -0.164556      0.142755      0.021800
   23 Atom        0.026856     -0.134680      0.107824
   24 Atom        0.012946     -0.123158      0.110211
   25 Atom        0.114097      0.133615     -0.247713
   26 Atom        0.021193     -0.133737      0.112544
   27 Atom        0.146149     -0.148443      0.002294
   28 Atom        0.146588     -0.148100      0.001512
   29 Atom       -0.103896      0.150209     -0.046313
 -----------------------------------------------------
 -----------------------------------------------------
    Center         ---- Electric Field Gradient ----
                       ( tensor representation )
                   ----       Eigenvalues       ----
 -----------------------------------------------------
    1 Atom       -0.115791      0.037289      0.078502
    2 Atom       -0.090413      0.026691      0.063722
    3 Atom       -0.045661     -0.008849      0.054509
    4 Atom       -0.042220     -0.010059      0.052279
    5 Atom       -0.058173     -0.005538      0.063711
    6 Atom       -0.054946     -0.012710      0.067656
    7 Atom       -0.532729      0.233601      0.299128
    8 Atom       -0.055115     -0.012841      0.067956
    9 Atom       -0.115876      0.037423      0.078453
   10 Atom       -0.090515      0.026734      0.063780
   11 Atom       -0.040689     -0.028719      0.069408
   12 Atom       -0.255138      0.122829      0.132308
   13 Atom       -0.261504      0.127795      0.133710
   14 Atom       -0.260140      0.127479      0.132661
   15 Atom       -0.254272      0.126294      0.127978
   16 Atom       -0.261437      0.129295      0.132142
   17 Atom       -0.261440      0.129296      0.132144
   18 Atom       -0.253889      0.125802      0.128087
   19 Atom       -0.270306      0.126875      0.143431
   20 Atom       -0.258696      0.128304      0.130392
   21 Atom       -0.248689      0.109067      0.139622
   22 Atom       -0.270436      0.126826      0.143611
   23 Atom       -0.258687      0.128307      0.130381
   24 Atom       -0.255144      0.122866      0.132278
   25 Atom       -0.261505      0.127793      0.133712
   26 Atom       -0.260134      0.127473      0.132661
   27 Atom       -0.297869      0.148135      0.149733
   28 Atom       -0.297829      0.148093      0.149736
   29 Atom       -0.301328      0.150215      0.151113
 -----------------------------------------------------
 Calling FoFJK, ICntrl=      2127 FMM=F ISym2X=0 I1Cent= 0 IOpClX= 0 NMat=1 NMatS=1 NMatT=0.
 ***** Axes restored to original set *****
 -------------------------------------------------------------------
 Center     Atomic                   Forces (Hartrees/Bohr)
 Number     Number              X              Y              Z
 -------------------------------------------------------------------
      1        6           0.014614524   -0.009167584    0.007499111
      2        6           0.016714960   -0.001259299   -0.000931771
      3        6           0.009168208   -0.003560475   -0.013238196
      4        6          -0.000921946   -0.008900896   -0.011563960
      5        6          -0.014776020   -0.011634498   -0.002880622
      6        6          -0.004868513   -0.008601210    0.005472339
      7        6           0.010031062   -0.003303959   -0.013505517
      8        6          -0.011063983    0.001056021   -0.001523309
      9        6          -0.001485565    0.015812564   -0.010367264
     10        6           0.009167333    0.010486113   -0.009429882
     11        7          -0.006951660    0.014060229    0.025855931
     12        1          -0.004223613    0.003803485   -0.009773912
     13        1          -0.008777172   -0.007447920   -0.001272792
     14        1          -0.004698542    0.012554390    0.001755199
     15        1          -0.009148686    0.002372895    0.011545343
     16        1          -0.004277297    0.011652901    0.000328629
     17        1           0.005204895   -0.003025024    0.010864489
     18        1           0.011059552    0.009119172    0.002744095
     19        1           0.003805946   -0.004358964   -0.006598379
     20        1          -0.003456855    0.013633541    0.002772879
     21        1          -0.011780760   -0.008504334   -0.001297677
     22        1           0.002349586   -0.002208703   -0.008107425
     23        1           0.005832971   -0.000713402    0.013085731
     24        1           0.004828384   -0.010234791    0.000260051
     25        1          -0.009353443   -0.006555136   -0.001923763
     26        1           0.004883688   -0.002285606    0.012408412
     27        1          -0.002202859    0.015833813   -0.005416522
     28        1           0.012017169   -0.005863055    0.010212994
     29        1          -0.011691363   -0.012760266   -0.006974215
 -------------------------------------------------------------------
 Cartesian Forces:  Max     0.025855931 RMS     0.008915716

 GradGradGradGradGradGradGradGradGradGradGradGradGradGradGradGradGradGrad
 Berny optimization.
 FormGI is forming the generalized inverse of G from B-inverse, IUseBI=4.
 Internal  Forces:  Max     0.025138274 RMS     0.004502088
 Search for a local minimum.
 Step number   1 out of a maximum of  174
 All quantities printed in internal units (Hartrees-Bohrs-Radians)
 Mixed Optimization -- RFO/linear search
 Second derivative matrix not updated -- first step.
 ITU=  0
     Eigenvalues ---    0.00336   0.00938   0.00949   0.00967   0.01080
     Eigenvalues ---    0.01101   0.01165   0.02665   0.02691   0.03807
     Eigenvalues ---    0.03863   0.03958   0.04367   0.04510   0.04576
     Eigenvalues ---    0.04616   0.04636   0.04669   0.04676   0.04695
     Eigenvalues ---    0.04739   0.04780   0.04934   0.05167   0.05179
     Eigenvalues ---    0.05689   0.05798   0.06014   0.06061   0.06084
     Eigenvalues ---    0.07142   0.07226   0.07395   0.07737   0.07766
     Eigenvalues ---    0.07766   0.07812   0.07815   0.07947   0.08327
     Eigenvalues ---    0.08503   0.08623   0.09066   0.09098   0.11353
     Eigenvalues ---    0.14354   0.15426   0.16000   0.16000   0.16000
     Eigenvalues ---    0.24207   0.25194   0.25247   0.25664   0.25670
     Eigenvalues ---    0.26129   0.26143   0.26368   0.28534   0.28597
     Eigenvalues ---    0.28684   0.28685   0.31726   0.31729   0.31790
     Eigenvalues ---    0.31791   0.32033   0.32033   0.32038   0.32038
     Eigenvalues ---    0.32049   0.32049   0.32050   0.32050   0.32092
     Eigenvalues ---    0.32119   0.32141   0.32144   0.40576   0.40640
     Eigenvalues ---    0.40644
 RFO step:  Lambda=-1.57958381D-02 EMin= 3.36188409D-03
 Linear search not attempted -- first point.
 Iteration  1 RMS(Cart)=  0.03652562 RMS(Int)=  0.00087927
 Iteration  2 RMS(Cart)=  0.00122283 RMS(Int)=  0.00033424
 Iteration  3 RMS(Cart)=  0.00000129 RMS(Int)=  0.00033424
 Iteration  4 RMS(Cart)=  0.00000000 RMS(Int)=  0.00033424
 Variable       Old X    -DE/DX   Delta X   Delta X   Delta X     New X
                                 (Linear)    (Quad)   (Total)
    R1        2.91160   0.00154   0.00000   0.00597   0.00603   2.91763
    R2        2.90936   0.00422   0.00000   0.01355   0.01357   2.92293
    R3        2.90313   0.00401   0.00000   0.01272   0.01332   2.91645
    R4        2.11230  -0.01121   0.00000  -0.03359  -0.03359   2.07871
    R5        2.91029   0.00050   0.00000   0.00073   0.00041   2.91070
    R6        2.10774  -0.01153   0.00000  -0.03431  -0.03431   2.07343
    R7        2.10752  -0.01344   0.00000  -0.03998  -0.03998   2.06754
    R8        2.90679   0.00196   0.00000   0.00736   0.00731   2.91410
    R9        2.91032   0.00048   0.00000   0.00064   0.00032   2.91064
   R10        2.11343  -0.01489   0.00000  -0.04469  -0.04469   2.06873
   R11        2.90663   0.00268   0.00000   0.00718   0.00706   2.91369
   R12        2.10755  -0.01241   0.00000  -0.03690  -0.03690   2.07064
   R13        2.10755  -0.01241   0.00000  -0.03689  -0.03689   2.07065
   R14        2.90676   0.00160   0.00000   0.00670   0.00643   2.91319
   R15        2.90675   0.00159   0.00000   0.00666   0.00639   2.91314
   R16        2.11348  -0.01458   0.00000  -0.04377  -0.04377   2.06971
   R17        2.10586  -0.00778   0.00000  -0.02308  -0.02308   2.08278
   R18        2.10784  -0.01406   0.00000  -0.04183  -0.04183   2.06601
   R19        2.90315   0.00406   0.00000   0.01284   0.01343   2.91658
   R20        2.83927   0.02514   0.00000   0.07460   0.07460   2.91387
   R21        2.10676  -0.01456   0.00000  -0.04325  -0.04325   2.06351
   R22        2.90943   0.00420   0.00000   0.01351   0.01354   2.92297
   R23        2.10582  -0.00771   0.00000  -0.02286  -0.02286   2.08295
   R24        2.10783  -0.01407   0.00000  -0.04185  -0.04185   2.06598
   R25        2.91163   0.00158   0.00000   0.00612   0.00618   2.91781
   R26        2.11229  -0.01122   0.00000  -0.03363  -0.03363   2.07865
   R27        2.10774  -0.01153   0.00000  -0.03430  -0.03430   2.07344
[...]
     6  C   -0.013287  -0.012001  -0.008606  -0.023027   0.005518
     7  C    0.070567   0.011686   0.043920   0.050854   0.056907
     8  C   -0.025466  -0.026368  -0.019552  -0.006662   0.002991
     9  C   -0.073759  -0.060198  -0.012106   0.011301  -0.019787
    10  C    0.476486   0.483698   0.002806   0.001864   0.001664
    11  N   -0.013724  -0.004722   0.312505   0.302502   0.292766
    12  H    0.000126   0.001257  -0.003947   0.001411  -0.001595
    13  H    0.006961  -0.001835   0.000537   0.000106   0.000048
    14  H   -0.002005  -0.000447   0.000354   0.000047  -0.000291
    15  H   -0.009198  -0.008129  -0.000129  -0.000229   0.000262
    16  H   -0.000437  -0.001036  -0.000137   0.000172  -0.000174
    17  H   -0.001437   0.005973   0.000151  -0.000174  -0.000172
    18  H    0.001465   0.000326   0.000617   0.001029  -0.000257
    19  H    0.000497  -0.000559  -0.009068  -0.001989   0.005716
    20  H   -0.001152  -0.000449   0.000971  -0.002012   0.000115
    21  H    0.010129   0.001257   0.005180   0.005931   0.003447
    22  H   -0.002263  -0.002043   0.000156  -0.004854   0.005601
    23  H   -0.002619   0.002491  -0.001640   0.001068   0.000019
    24  H   -0.011723  -0.009504   0.001570  -0.004768  -0.002502
    25  H    0.501939   0.010309  -0.000096   0.000707   0.000138
    26  H    0.010309   0.467916   0.000036   0.000352  -0.000232
    27  H   -0.000096   0.000036   0.359705  -0.021546  -0.011659
    28  H    0.000707   0.000352  -0.021546   0.366712  -0.010607
    29  H    0.000138  -0.000232  -0.011659  -0.010607   0.360094
 Mulliken charges:
               1
     1  C    0.388601
     2  C   -0.836607
     3  C    0.407299
     4  C   -0.698456
     5  C    0.305754
     6  C   -0.621097
     7  C   -0.792092
     8  C   -0.621781
     9  C    0.395416
    10  C   -0.835450
    11  N   -0.195438
    12  H    0.263826
    13  H    0.167971
    14  H    0.194388
    15  H    0.269674
    16  H    0.180729
    17  H    0.181374
    18  H    0.271064
    19  H    0.105943
    20  H    0.214805
    21  H    0.308285
    22  H    0.097047
    23  H    0.214305
    24  H    0.266840
    25  H    0.167834
    26  H    0.194181
    27  H    0.340803
    28  H    0.337240
    29  H    0.327541
 Sum of Mulliken charges =   1.00000
 Mulliken charges with hydrogens summed into heavy atoms:
               1
     1  C    0.652427
     2  C   -0.474248
     3  C    0.676973
     4  C   -0.336352
     5  C    0.576818
     6  C   -0.300348
     7  C   -0.483807
     8  C   -0.310429
     9  C    0.662256
    10  C   -0.473435
    11  N    0.810146
 Electronic spatial extent (au):  <R**2>=           1412.7194
 Charge=              1.0000 electrons
 Dipole moment (field-independent basis, Debye):
    X=             -7.8220    Y=              0.3851    Z=             -0.0057  Tot=              7.8315
 Quadrupole moment (field-independent basis, Debye-Ang):
   XX=            -35.3006   YY=            -61.9097   ZZ=            -61.5230
   XY=             -0.8467   XZ=             -0.0036   YZ=             -0.0094
 Traceless Quadrupole moment (field-independent basis, Debye-Ang):
   XX=             17.6105   YY=             -8.9986   ZZ=             -8.6119
   XY=             -0.8467   XZ=             -0.0036   YZ=             -0.0094
 Octapole moment (field-independent basis, Debye-Ang**2):
  XXX=            -96.7014  YYY=              2.7541  ZZZ=              0.1942  XYY=             -7.6456
  XXY=              4.1352  XXZ=             -0.0428  XZZ=             -4.9980  YZZ=             -1.4374
  YYZ=             -0.2118  XYZ=              0.1480
 Hexadecapole moment (field-independent basis, Debye-Ang**3):
 XXXX=           -524.6923 YYYY=           -505.4577 ZZZZ=           -499.5479 XXXY=            -14.3868
 XXXZ=              0.4633 YYYX=             -6.7389 YYYZ=              0.0697 ZZZX=             -0.7693
 ZZZY=             -0.0154 XXYY=           -201.7206 XXZZ=           -202.5982 YYZZ=           -171.5458
 XXYZ=             -0.7420 YYXZ=              0.5777 ZZXY=              0.1477
 N-N= 7.150348423257D+02 E-N=-2.451574336087D+03  KE= 4.443537640518D+02

 **********************************************************************

            Electrostatic Properties Using The SCF Density

 **********************************************************************

       Atomic Center    1 is at  -0.490857  0.345182  1.267326
       Atomic Center    2 is at   0.822507  1.163660  1.256782
       Atomic Center    3 is at   1.642740  0.812500 -0.000545
       Atomic Center    4 is at   1.970084 -0.694386 -0.000362
       Atomic Center    5 is at   0.661973 -1.511601  0.000407
       Atomic Center    6 is at  -0.161566 -1.164179  1.257131
       Atomic Center    7 is at  -1.267171  0.735590  0.000371
       Atomic Center    8 is at  -0.162046 -1.164717 -1.256138
       Atomic Center    9 is at  -0.491568  0.344515 -1.267177
       Atomic Center   10 is at   0.821790  1.163112 -1.257497
       Atomic Center   11 is at  -2.666626  0.044785 -0.000014
       Atomic Center   12 is at  -1.076676  0.609974  2.155645
       Atomic Center   13 is at   0.601417  2.235730  1.286605
       Atomic Center   14 is at   1.389067  0.933611  2.163117
       Atomic Center   15 is at   2.567976  1.393548 -0.000929
       Atomic Center   16 is at   2.570795 -0.949792  0.877815
       Atomic Center   17 is at   2.570154 -0.950078 -0.878916
       Atomic Center   18 is at   0.892163 -2.579688  0.000579
       Atomic Center   19 is at  -1.069470 -1.783725  1.295964
       Atomic Center   20 is at   0.395594 -1.410976  2.164612
       Atomic Center   21 is at  -1.498154  1.802171 -0.000128
       Atomic Center   22 is at  -1.069469 -1.785670 -1.294637
       Atomic Center   23 is at   0.394163 -1.411898 -2.164071
       Atomic Center   24 is at  -1.077572  0.608327 -2.155492
       Atomic Center   25 is at   0.600456  2.235116 -1.287542
       Atomic Center   26 is at   1.387879  0.932943 -2.164090
       Atomic Center   27 is at  -2.809148 -0.499522  0.855291
       Atomic Center   28 is at  -2.756321 -0.601278 -0.789289
       Atomic Center   29 is at  -3.421799  0.729655 -0.066217
 -----------------------------------------------------------------

              Electrostatic Properties (Atomic Units)

 -----------------------------------------------------------------
    Center     Electric         -------- Electric Field --------
               Potential          X             Y             Z
 -----------------------------------------------------------------
    1 Atom    -14.610067      0.003446     -0.000721      0.002783
    2 Atom    -14.644804      0.002450     -0.000007     -0.001525
    3 Atom    -14.644589      0.001518     -0.000374      0.000002
    4 Atom    -14.660820     -0.000349      0.000665      0.000001
    5 Atom    -14.638203      0.002260     -0.000728      0.000029
    6 Atom    -14.635150      0.003108     -0.000306     -0.001503
    7 Atom    -14.548632      0.012345      0.003947      0.000024
    8 Atom    -14.634521      0.003235     -0.000239      0.001534
    9 Atom    -14.609951      0.003400     -0.000658     -0.002830
   10 Atom    -14.644720      0.002467     -0.000008      0.001530
   11 Atom    -18.099424      0.009741      0.004375      0.000009
   12 Atom     -0.971829     -0.009457      0.004625      0.015247
   13 Atom     -0.996667     -0.003350      0.017879      0.000764
   14 Atom     -0.997554      0.009509     -0.003586      0.015211
   15 Atom     -1.010413      0.015928      0.009932     -0.000008
   16 Atom     -1.012351      0.010321     -0.004398      0.014440
   17 Atom     -1.012350      0.010313     -0.004399     -0.014440
   18 Atom     -1.004973      0.004071     -0.018344      0.000004
   19 Atom     -0.980067     -0.014155     -0.010366      0.001011
   20 Atom     -0.989109      0.009315     -0.004363      0.015273
   21 Atom     -0.935877     -0.003381      0.018906      0.000154
   22 Atom     -0.978949     -0.014046     -0.010419     -0.001092
   23 Atom     -0.988530      0.009257     -0.004386     -0.015304
   24 Atom     -0.971990     -0.009483      0.004585     -0.015271
   25 Atom     -0.996584     -0.003360      0.017878     -0.000774
   26 Atom     -0.997506      0.009502     -0.003584     -0.015217
   27 Atom     -0.778776     -0.003256     -0.010982      0.017591
   28 Atom     -0.778933     -0.002032     -0.013304     -0.016019
   29 Atom     -0.777484     -0.015984      0.014219     -0.001578
 -----------------------------------------------------------------
 -----------------------------------------------------
    Center         ---- Electric Field Gradient ----
                     XX            YY            ZZ
 -----------------------------------------------------
    1 Atom     -500.287556   -500.268516   -500.373866
    2 Atom     -500.425914   -500.345554   -500.309766
    3 Atom     -500.207657   -500.219792   -500.299168
    4 Atom     -500.367637   -500.377589   -500.264489
    5 Atom     -500.258840   -500.165811   -500.315203
    6 Atom     -500.348959   -500.414823   -500.288094
    7 Atom     -501.250290   -500.739375   -500.492946
    8 Atom     -500.354606   -500.416479   -500.288656
    9 Atom     -500.287699   -500.269166   -500.370493
   10 Atom     -500.425455   -500.344942   -500.308750
   11 Atom     -812.462187   -812.502643   -812.512229
   12 Atom       -1.843096     -1.732450     -1.994039
   13 Atom       -1.722768     -2.122473     -1.697811
   14 Atom       -1.814324     -1.713905     -1.998266
   15 Atom       -2.026515     -1.833881     -1.709424
   16 Atom       -1.830239     -1.724536     -1.988127
   17 Atom       -1.829969     -1.724607     -1.988382
   18 Atom       -1.729924     -2.135154     -1.712419
   19 Atom       -2.021358     -1.844218     -1.704418
   20 Atom       -1.807485     -1.715023     -1.996883
   21 Atom       -1.757351     -2.130759     -1.704438
   22 Atom       -2.021485     -1.844132     -1.703703
   23 Atom       -1.806697     -1.714696     -1.996832
   24 Atom       -1.842631     -1.732321     -1.994285
   25 Atom       -1.722802     -2.122424     -1.697773
   26 Atom       -1.814181     -1.713995     -1.998495
   27 Atom       -1.571004     -1.707897     -1.928408
   28 Atom       -1.564164     -1.766959     -1.872416
   29 Atom       -1.852721     -1.813192     -1.571728
 -----------------------------------------------------
 -----------------------------------------------------
    Center         ---- Electric Field Gradient ----
                     XY            XZ            YZ
 -----------------------------------------------------
    1 Atom        0.030421     -0.077970      0.040578
    2 Atom       -0.076353      0.017580     -0.021945
    3 Atom        0.047268     -0.000021     -0.000027
    4 Atom       -0.020025      0.000046     -0.000053
    5 Atom        0.006618     -0.000696      0.000195
    6 Atom       -0.001725      0.027452      0.003890
    7 Atom       -0.378937      0.000508     -0.000503
    8 Atom       -0.004008     -0.026781     -0.004059
    9 Atom        0.031303      0.079306     -0.041378
   10 Atom       -0.076641     -0.017424      0.021926
   11 Atom        0.036541      0.001281      0.004110
   12 Atom        0.057784      0.187275     -0.084153
   13 Atom        0.089500      0.001884     -0.008711
   14 Atom        0.047824     -0.189508      0.080990
   15 Atom       -0.200134      0.000131      0.000084
   16 Atom        0.054583     -0.194918      0.083274
   17 Atom        0.054576      0.194764     -0.083392
   18 Atom        0.090656     -0.000038      0.000056
   19 Atom       -0.198024      0.007985      0.006912
   20 Atom        0.050883     -0.188771      0.080870
   21 Atom        0.088477     -0.000254      0.000161
   22 Atom       -0.197663     -0.007408     -0.007108
   23 Atom        0.050841      0.188525     -0.081100
   24 Atom        0.057804     -0.187471      0.083838
   25 Atom        0.089595     -0.001900      0.008807
   26 Atom        0.047801      0.189411     -0.081063
   27 Atom       -0.036679      0.059155      0.230683
   28 Atom       -0.027162     -0.033869     -0.252341
   29 Atom        0.264360     -0.025299      0.023494
 -----------------------------------------------------
 -----------------------------------------------------
    Center         ---- Electric Field Gradient ----
                   ----       Eigenvalues       ----
 -----------------------------------------------------
    1 Atom     -500.435094   -500.255350   -500.239494
    2 Atom     -500.472101   -500.332898   -500.276235
    3 Atom     -500.299168   -500.261380   -500.166069
    4 Atom     -500.393247   -500.351979   -500.264489
    5 Atom     -500.315212   -500.259300   -500.165342
    6 Atom     -500.415052   -500.359348   -500.277476
    7 Atom     -501.451836   -500.537840   -500.492936
    8 Atom     -500.417022   -500.363613   -500.279105
    9 Atom     -500.434665   -500.254775   -500.237918
   10 Atom     -500.471849   -500.331870   -500.275428
   11 Atom     -812.524849   -812.511703   -812.440506
   12 Atom       -2.145693     -1.716721     -1.707171
   13 Atom       -2.141777     -1.703642     -1.697632
   14 Atom       -2.137797     -1.697072     -1.691624
   15 Atom       -2.152302     -1.709424     -1.708094
   16 Atom       -2.143159     -1.701455     -1.698289
   17 Atom       -2.143157     -1.701479     -1.698322
   18 Atom       -2.154511     -1.712419     -1.710567
   19 Atom       -2.149962     -1.716038     -1.703994
   20 Atom       -2.135106     -1.693550     -1.690734
   21 Atom       -2.150662     -1.737449     -1.704437
   22 Atom       -2.149680     -1.716456     -1.703185
   23 Atom       -2.134715     -1.693113     -1.690396
   24 Atom       -2.145764     -1.716348     -1.707125
   25 Atom       -2.141775     -1.703635     -1.697590
   26 Atom       -2.137858     -1.697137     -1.691676
   27 Atom       -2.083287     -1.562704     -1.561319
   28 Atom       -2.081125     -1.561951     -1.560464
   29 Atom       -2.100310     -1.569473     -1.567858
 -----------------------------------------------------
 -----------------------------------------------------
    Center         ---- Electric Field Gradient ----
                       ( tensor representation )
                   3XX-RR        3YY-RR        3ZZ-RR
 -----------------------------------------------------
    1 Atom        0.022423      0.041463     -0.063886
    2 Atom       -0.065503      0.014858      0.050645
    3 Atom        0.034549      0.022413     -0.056963
    4 Atom       -0.031065     -0.041018      0.072083
    5 Atom       -0.012222      0.080807     -0.068585
    6 Atom        0.001667     -0.064198      0.062531
    7 Atom       -0.422753      0.088162      0.334591
    8 Atom       -0.001359     -0.063232      0.064591
    9 Atom        0.021421      0.039953     -0.061374
   10 Atom       -0.065739      0.014774      0.050965
   11 Atom        0.030166     -0.010290     -0.019876
   12 Atom        0.013432      0.124079     -0.137511
   13 Atom        0.124916     -0.274789      0.149873
   14 Atom        0.027841      0.128260     -0.156101
   15 Atom       -0.169908      0.022725      0.147182
   16 Atom        0.017395      0.123098     -0.140493
   17 Atom        0.017684      0.123046     -0.140729
   18 Atom        0.129242     -0.275989      0.146747
   19 Atom       -0.164694      0.012447      0.152247
   20 Atom        0.032312      0.124774     -0.157086
   21 Atom        0.106832     -0.266576      0.159744
   22 Atom       -0.165045      0.012308      0.152737
   23 Atom        0.032712      0.124712     -0.157424
   24 Atom        0.013782      0.124091     -0.137873
   25 Atom        0.124864     -0.274758      0.149894
   26 Atom        0.028042      0.128229     -0.156271
   27 Atom        0.164766      0.027872     -0.192639
   28 Atom        0.170349     -0.032446     -0.137903
   29 Atom       -0.106840     -0.067312      0.174152
 -----------------------------------------------------
 -----------------------------------------------------
    Center         ---- Electric Field Gradient ----
                       ( tensor representation )
                   ----       Eigenvalues       ----
 -----------------------------------------------------
    1 Atom       -0.125115      0.054629      0.070485
    2 Atom       -0.111690      0.027514      0.084176
    3 Atom       -0.056963     -0.019174      0.076137
    4 Atom       -0.056676     -0.015407      0.072083
    5 Atom       -0.068594     -0.012682      0.081276
    6 Atom       -0.064427     -0.008723      0.073150
    7 Atom       -0.624299      0.289697      0.334601
    8 Atom       -0.063775     -0.010366      0.074142
    9 Atom       -0.125546      0.054344      0.071201
   10 Atom       -0.112133      0.027846      0.084287
   11 Atom       -0.032497     -0.019350      0.051847
   12 Atom       -0.289165      0.139807      0.149358
   13 Atom       -0.294093      0.144042      0.150052
   14 Atom       -0.295633      0.145092      0.150541
   15 Atom       -0.295696      0.147182      0.148513
   16 Atom       -0.295525      0.146180      0.149345
   17 Atom       -0.295504      0.146174      0.149331
   18 Atom       -0.295345      0.146747      0.148599
   19 Atom       -0.293298      0.140627      0.152671
   20 Atom       -0.295310      0.146247      0.149062
   21 Atom       -0.286480      0.126734      0.159746
   22 Atom       -0.293239      0.139984      0.153255
   23 Atom       -0.295307      0.146295      0.149012
   24 Atom       -0.289351      0.140064      0.149287
   25 Atom       -0.294108      0.144032      0.150077
   26 Atom       -0.295635      0.145087      0.150548
   27 Atom       -0.347517      0.173066      0.174451
   28 Atom       -0.346612      0.172562      0.174049
   29 Atom       -0.354430      0.176407      0.178022
 -----------------------------------------------------

 Test job not archived.
 1|1|UNPC-NP-ALMACH|FOpt|RB3LYP|6-311++G(d,p)|C10H18N1(1+)|HERA|07-Aug-
 2018|0||# RB3LYP/6-311++G** Opt Test prop=EFG||C10NH18||1,1|C,0.613599
 8802,-0.4596423973,0.9368464481|C,1.6272513239,-0.621420275,-0.2212908
 381|C,0.9461670508,-0.2722201713,-1.5596290899|C,-0.256798521,-1.20958
 35549,-1.7878473679|C,-1.2726189419,-1.0424903356,-0.6392901462|C,-0.5
 958068025,-1.3917076266,0.7016968006|C,0.1686447316,1.0108233644,0.934
 9161949|C,-1.7614918625,0.4194089889,-0.593509187|C,-0.5620949772,1.36
 68142599,-0.3691029897|C,0.461030939,1.1905258469,-1.516814078|N,-0.76
 24308425,1.2864360728,2.1567276032|H,1.107465073,-0.694752238,1.887230
 846|H,2.4998714685,0.0185107755,-0.0535851825|H,1.9902277916,-1.652683
 8744,-0.2312069213|H,1.6673146933,-0.3889388618,-2.3720332511|H,0.0798
 938005,-2.2493583395,-1.8406458278|H,-0.7348979108,-0.9832340349,-2.74
 57132541|H,-2.125715307,-1.7060937935,-0.7994614491|H,-1.3276704582,-1
 .3307221213,1.5204103753|H,-0.2488622139,-2.4282816707,0.7009962586|H,
 1.0201117812,1.6742354557,1.0956499848|H,-2.5302859706,0.5351678659,0.
 1849747642|H,-2.2567022372,0.6913388315,-1.5292606753|H,-0.8927283058,
 2.411601052,-0.3344135812|H,1.3057820451,1.8736778134,-1.37976016|H,-0
 .0166521016,1.4658947609,-2.4609198001|H,-0.8643273826,0.4501636997,2.
 7384441656|H,-1.7004437821,1.5580580428,1.8489126202|H,-0.3948109613,2
 .0360064645,2.7455537374||Version=EM64W-G09RevD.01|State=1-A|HF=-446.5
 609988|RMSD=1.388e-009|RMSF=1.685e-004|Dipole=-0.6255107,1.4810307,2.6
 284584|Quadrupole=-5.7111995,-2.1425761,7.8537756,-2.1328694,-3.616303
 ,7.8685973|PG=C01 [X(C10H18N1)]||@


 THE LENGTH OF A MEETING IS PROPORTIONAL TO THE
 SQUARE OF THE PARTICIPANTS.
 Job cpu time:       0 days  0 hours 18 minutes 26.0 seconds.
 File lengths (MBytes):  RWF=     62 Int=      0 D2E=      0 Chk=     11 Scr=      1
 Normal termination of Gaussian 09 at Tue Aug 07 04:55:12 2018.
