 Entering Link 1 = C:\G09W\l1.exe PID=     17632.
  
 Copyright (c) 1988,1990,1992,1993,1995,1998,2003,2009,2013,
            Gaussian, Inc.  All Rights Reserved.
  
 This is part of the Gaussian(R) 09 program.  It is based on
 the Gaussian(R) 03 system (copyright 2003, Gaussian, Inc.),
 the Gaussian(R) 98 system (copyright 1998, Gaussian, Inc.),
 the Gaussian(R) 94 system (copyright 1995, Gaussian, Inc.),
 the Gaussian 92(TM) system (copyright 1992, Gaussian, Inc.),
 the Gaussian 90(TM) system (copyright 1990, Gaussian, Inc.),
 the Gaussian 88(TM) system (copyright 1988, Gaussian, Inc.),
 the Gaussian 86(TM) system (copyright 1986, Carnegie Mellon
 University), and the Gaussian 82(TM) system (copyright 1983,
 Carnegie Mellon University). Gaussian is a federally registered
 trademark of Gaussian, Inc.
  
 This software contains proprietary and confidential information,
 including trade secrets, belonging to Gaussian, Inc.
  
 This software is provided under written license and may be
 used, copied, transmitted, or stored only in accord with that
 written license.
  
 The following legend is applicable only to US Government
 contracts under FAR:
  
                    RESTRICTED RIGHTS LEGEND
  
 Use, reproduction and disclosure by the US Government is
 subject to restrictions as set forth in subparagraphs (a)
 and (c) of the Commercial Computer Software - Restricted
 Rights clause in FAR 52.227-19.
  
 Gaussian, Inc.
 340 Quinnipiac St., Bldg. 40, Wallingford CT 06492
  
  
 ---------------------------------------------------------------
 Warning -- This program may not be used in any manner that
 competes with the business of Gaussian, Inc. or will provide
 assistance to any competitor of Gaussian, Inc.  The licensee
 of this program is prohibited from giving any competitor of
 Gaussian, Inc. access to this program.  By using this program,
 the user acknowledges that Gaussian, Inc. is engaged in the
 business of creating and licensing software in the field of
 computational chemistry and represents and warrants to the
 licensee that it is not a competitor of Gaussian, Inc. and that
 it will not use this program in any manner prohibited above.
 ---------------------------------------------------------------
  

 Cite this work as:
 Gaussian 09, Revision D.01,
 M. J. Frisch, G. W. Trucks, H. B. Schlegel, G. E. Scuseria, 
 M. A. Robb, J. R. Cheeseman, G. Scalmani, V. Barone, B. Mennucci, 
 G. A. Petersson, H. Nakatsuji, M. Caricato, X. Li, H. P. Hratchian, 
 A. F. Izmaylov, J. Bloino, G. Zheng, J. L. Sonnenberg, M. Hada, 
 M. Ehara, K. Toyota, R. Fukuda, J. Hasegawa, M. Ishida, T. Nakajima, 
 Y. Honda, O. Kitao, H. Nakai, T. Vreven, J. A. Montgomery, Jr., 
 J. E. Peralta, F. Ogliaro, M. Bearpark, J. J. Heyd, E. Brothers, 
 K. N. Kudin, V. N. Staroverov, T. Keith, R. Kobayashi, J. Normand, 
 K. Raghavachari, A. Rendell, J. C. Burant, S. S. Iyengar, J. Tomasi, 
 M. Cossi, N. Rega, J. M. Millam, M. Klene, J. E. Knox, J. B. Cross, 
 V. Bakken, C. Adamo, J. Jaramillo, R. Gomperts, R. E. Stratmann, 
 O. Yazyev, A. J. Austin, R. Cammi, C. Pomelli, J. W. Ochterski, 
 R. L. Martin, K. Morokuma, V. G. Zakrzewski, G. A. Voth, 
 P. Salvador, J. J. Dannenberg, S. Dapprich, A. D. Daniels, 
 O. Farkas, J. B. Foresman, J. V. Ortiz, J. Cioslowski, 
 and D. J. Fox, Gaussian, Inc., Wallingford CT, 2013.
 
 ******************************************
 Gaussian 09:  EM64W-G09RevD.01 13-Apr-2013
                04-Aug-2018 
 ******************************************
 %Chk=Anth_266.chk
 %Mem=64GB
 %NProcShared=20
 Will use up to   20 processors via shared memory.
 -------------------------------------
 # RB3LYP/6-311++G** Opt Test prop=EFG
 -------------------------------------
 1/14=-1,18=20,19=15,26=3,38=1/1,3;
 2/9=110,12=2,17=6,18=5,40=1/2;
 3/5=4,6=6,7=1111,11=2,16=1,25=1,30=1,71=1,74=-5,116=1/1,2,3;
 4//1;
 5/5=2,38=5/2;
 6/7=2,8=2,9=2,10=2,14=1,28=1/1,2;
 7//1,2,3,16;
 1/14=-1,18=20,19=15,26=3/3(2);
 2/9=110/2;
 99//99;
 2/9=110/2;
 3/5=4,6=6,7=1111,11=2,16=1,25=1,30=1,71=1,74=-5,116=1/1,2,3;
 4/5=5,16=3,69=1/1;
 5/5=2,38=5/2;
 7//1,2,3,16;
 1/14=-1,18=20,19=15,26=3/3(-5);
 2/9=110/2;
 6/7=2,8=2,9=2,10=2,14=1,19=2,28=1/1,2;
 99/9=1/99;
 --------
 C11N2H11
 --------
 Symbolic Z-matrix:
 Charge =  1 Multiplicity = 1
 N                    -3.40443  -1.97464   0.41247 
 C                    -2.26669  -2.4838    0.20778 
 C                    -1.12807  -1.77663   0.11294 
 C                    -1.12319  -0.43031   0.23397 
 C                    -2.35682   0.07753   0.45186 
 C                    -3.43724  -0.71746   0.53063 
 C                     0.00039   0.33051   0.14607 
 C                     1.23113  -0.18287  -0.0729 
 C                     2.32417   0.59409  -0.15495 
 N                     2.3085    1.8928   -0.03344 
 C                     1.12568   2.40081   0.177 
 C                    -0.00167   1.67622   0.26856 
 C                     3.55038   2.75683  -0.13326 
 H                    -2.24691  -3.58297   0.1057 
 H                    -0.22403  -2.37578  -0.06725 
 H                    -2.56092   1.15054   0.5772 
 H                    -4.43536  -0.28059   0.70921 
 H                     1.42252  -1.25851  -0.19789 
 H                     3.30477   0.12153  -0.33482 
 H                     1.0739    3.49799   0.28431 
 H                    -0.9124    2.26529   0.44924 
 H                     4.43536   2.17454  -0.4745 
 H                     3.38908   3.58297  -0.86269 
 H                     3.78616   3.19629   0.86269 
 

 GradGradGradGradGradGradGradGradGradGradGradGradGradGradGradGradGradGrad
 Berny optimization.
 Initialization pass.
                           ----------------------------
                           !    Initial Parameters    !
                           ! (Angstroms and Degrees)  !
 --------------------------                            --------------------------
 ! Name  Definition              Value          Derivative Info.                !
 --------------------------------------------------------------------------------
 ! R1    R(1,2)                  1.2632         estimate D2E/DX2                !
 ! R2    R(1,6)                  1.2632         estimate D2E/DX2                !
 ! R3    R(2,3)                  1.3437         estimate D2E/DX2                !
 ! R4    R(2,14)                 1.1041         estimate D2E/DX2                !
 ! R5    R(3,4)                  1.3518         estimate D2E/DX2                !
 ! R6    R(3,15)                 1.0994         estimate D2E/DX2                !
 ! R7    R(4,5)                  1.3517         estimate D2E/DX2                !
 ! R8    R(4,7)                  1.3598         estimate D2E/DX2                !
 ! R9    R(5,6)                  1.3437         estimate D2E/DX2                !
 ! R10   R(5,16)                 1.0994         estimate D2E/DX2                !
 ! R11   R(6,17)                 1.1041         estimate D2E/DX2                !
 ! R12   R(7,8)                  1.3514         estimate D2E/DX2                !
 ! R13   R(7,12)                 1.3513         estimate D2E/DX2                !
 ! R14   R(8,9)                  1.3436         estimate D2E/DX2                !
 ! R15   R(8,18)                 1.0997         estimate D2E/DX2                !
 ! R16   R(9,10)                 1.3045         estimate D2E/DX2                !
 ! R17   R(9,19)                 1.1033         estimate D2E/DX2                !
 ! R18   R(10,11)                1.3044         estimate D2E/DX2                !
 ! R19   R(10,13)                1.5162         estimate D2E/DX2                !
 ! R20   R(11,12)                1.3433         estimate D2E/DX2                !
 ! R21   R(11,20)                1.1036         estimate D2E/DX2                !
 ! R22   R(12,21)                1.0996         estimate D2E/DX2                !
 ! R23   R(13,22)                1.113          estimate D2E/DX2                !
 ! R24   R(13,23)                1.1138         estimate D2E/DX2                !
 ! R25   R(13,24)                1.1138         estimate D2E/DX2                !
 ! A1    A(2,1,6)              116.0867         estimate D2E/DX2                !
 ! A2    A(1,2,3)              124.231          estimate D2E/DX2                !
 ! A3    A(1,2,14)             115.6204         estimate D2E/DX2                !
 ! A4    A(3,2,14)             120.1486         estimate D2E/DX2                !
 ! A5    A(2,3,4)              121.3936         estimate D2E/DX2                !
 ! A6    A(2,3,15)             114.9314         estimate D2E/DX2                !
 ! A7    A(4,3,15)             123.675          estimate D2E/DX2                !
 ! A8    A(3,4,5)              112.6633         estimate D2E/DX2                !
 ! A9    A(3,4,7)              123.6737         estimate D2E/DX2                !
 ! A10   A(5,4,7)              123.663          estimate D2E/DX2                !
 ! A11   A(4,5,6)              121.3981         estimate D2E/DX2                !
 ! A12   A(4,5,16)             123.6739         estimate D2E/DX2                !
 ! A13   A(6,5,16)             114.928          estimate D2E/DX2                !
 ! A14   A(1,6,5)              124.2274         estimate D2E/DX2                !
 ! A15   A(1,6,17)             115.6218         estimate D2E/DX2                !
 ! A16   A(5,6,17)             120.1509         estimate D2E/DX2                !
 ! A17   A(4,7,8)              123.3978         estimate D2E/DX2                !
 ! A18   A(4,7,12)             123.3734         estimate D2E/DX2                !
 ! A19   A(8,7,12)             113.2288         estimate D2E/DX2                !
 ! A20   A(7,8,9)              122.0815         estimate D2E/DX2                !
 ! A21   A(7,8,18)             123.266          estimate D2E/DX2                !
 ! A22   A(9,8,18)             114.6525         estimate D2E/DX2                !
 ! A23   A(8,9,10)             124.0747         estimate D2E/DX2                !
 ! A24   A(8,9,19)             119.035          estimate D2E/DX2                !
 ! A25   A(10,9,19)            116.8903         estimate D2E/DX2                !
 ! A26   A(9,10,11)            114.4349         estimate D2E/DX2                !
 ! A27   A(9,10,13)            123.4621         estimate D2E/DX2                !
 ! A28   A(11,10,13)           122.1022         estimate D2E/DX2                !
 ! A29   A(10,11,12)           124.1916         estimate D2E/DX2                !
 ! A30   A(10,11,20)           116.4506         estimate D2E/DX2                !
 ! A31   A(12,11,20)           119.3578         estimate D2E/DX2                !
 ! A32   A(7,12,11)            121.9884         estimate D2E/DX2                !
 ! A33   A(7,12,21)            123.3445         estimate D2E/DX2                !
 ! A34   A(11,12,21)           114.6671         estimate D2E/DX2                !
 ! A35   A(10,13,22)           111.9219         estimate D2E/DX2                !
 ! A36   A(10,13,23)           110.3152         estimate D2E/DX2                !
 ! A37   A(10,13,24)           109.8378         estimate D2E/DX2                !
 ! A38   A(22,13,23)           107.6032         estimate D2E/DX2                !
 ! A39   A(22,13,24)           108.1949         estimate D2E/DX2                !
 ! A40   A(23,13,24)           108.8798         estimate D2E/DX2                !
 ! D1    D(6,1,2,3)              0.0042         estimate D2E/DX2                !
 ! D2    D(6,1,2,14)          -179.9989         estimate D2E/DX2                !
 ! D3    D(2,1,6,5)             -0.0052         estimate D2E/DX2                !
 ! D4    D(2,1,6,17)           179.9943         estimate D2E/DX2                !
 ! D5    D(1,2,3,4)             -0.0007         estimate D2E/DX2                !
 ! D6    D(1,2,3,15)           179.9973         estimate D2E/DX2                !
 ! D7    D(14,2,3,4)          -179.9975         estimate D2E/DX2                !
 ! D8    D(14,2,3,15)            0.0005         estimate D2E/DX2                !
 ! D9    D(2,3,4,5)             -0.0018         estimate D2E/DX2                !
 ! D10   D(2,3,4,7)           -179.9995         estimate D2E/DX2                !
 ! D11   D(15,3,4,5)          -179.9996         estimate D2E/DX2                !
 ! D12   D(15,3,4,7)             0.0026         estimate D2E/DX2                !
 ! D13   D(3,4,5,6)              0.0008         estimate D2E/DX2                !
 ! D14   D(3,4,5,16)          -179.9927         estimate D2E/DX2                !
 ! D15   D(7,4,5,6)            179.9985         estimate D2E/DX2                !
 ! D16   D(7,4,5,16)             0.0051         estimate D2E/DX2                !
 ! D17   D(3,4,7,8)              0.0468         estimate D2E/DX2                !
 ! D18   D(3,4,7,12)          -179.9726         estimate D2E/DX2                !
 ! D19   D(5,4,7,8)           -179.9507         estimate D2E/DX2                !
 ! D20   D(5,4,7,12)             0.0299         estimate D2E/DX2                !
 ! D21   D(4,5,6,1)              0.0029         estimate D2E/DX2                !
 ! D22   D(4,5,6,17)          -179.9967         estimate D2E/DX2                !
 ! D23   D(16,5,6,1)           179.9969         estimate D2E/DX2                !
 ! D24   D(16,5,6,17)           -0.0027         estimate D2E/DX2                !
 ! D25   D(4,7,8,9)           -179.9951         estimate D2E/DX2                !
 ! D26   D(4,7,8,18)             0.0141         estimate D2E/DX2                !
 ! D27   D(12,7,8,9)             0.0226         estimate D2E/DX2                !
 ! D28   D(12,7,8,18)         -179.9682         estimate D2E/DX2                !
 ! D29   D(4,7,12,11)          179.9926         estimate D2E/DX2                !
 ! D30   D(4,7,12,21)           -0.0044         estimate D2E/DX2                !
 ! D31   D(8,7,12,11)           -0.025          estimate D2E/DX2                !
 ! D32   D(8,7,12,21)          179.978          estimate D2E/DX2                !
 ! D33   D(7,8,9,10)             0.0477         estimate D2E/DX2                !
 ! D34   D(7,8,9,19)           179.9771         estimate D2E/DX2                !
 ! D35   D(18,8,9,10)         -179.9607         estimate D2E/DX2                !
 ! D36   D(18,8,9,19)           -0.0313         estimate D2E/DX2                !
 ! D37   D(8,9,10,11)           -0.1087         estimate D2E/DX2                !
 ! D38   D(8,9,10,13)         -179.7822         estimate D2E/DX2                !
 ! D39   D(19,9,10,11)         179.9605         estimate D2E/DX2                !
 ! D40   D(19,9,10,13)           0.287          estimate D2E/DX2                !
 ! D41   D(9,10,11,12)           0.1063         estimate D2E/DX2                !
 ! D42   D(9,10,11,20)        -179.9612         estimate D2E/DX2                !
 ! D43   D(13,10,11,12)        179.7848         estimate D2E/DX2                !
 ! D44   D(13,10,11,20)         -0.2827         estimate D2E/DX2                !
 ! D45   D(9,10,13,22)           8.791          estimate D2E/DX2                !
 ! D46   D(9,10,13,23)         128.5668         estimate D2E/DX2                !
 ! D47   D(9,10,13,24)        -111.4084         estimate D2E/DX2                !
 ! D48   D(11,10,13,22)       -170.8581         estimate D2E/DX2                !
 ! D49   D(11,10,13,23)        -51.0823         estimate D2E/DX2                !
 ! D50   D(11,10,13,24)         68.9426         estimate D2E/DX2                !
 ! D51   D(10,11,12,7)          -0.0426         estimate D2E/DX2                !
 ! D52   D(10,11,12,21)        179.9547         estimate D2E/DX2                !
 ! D53   D(20,11,12,7)        -179.9733         estimate D2E/DX2                !
 ! D54   D(20,11,12,21)          0.024          estimate D2E/DX2                !
 --------------------------------------------------------------------------------
 Trust Radius=3.00D-01 FncErr=1.00D-07 GrdErr=1.00D-06
 Number of steps in this run=    129 maximum allowed number of steps=    144.
 GradGradGradGradGradGradGradGradGradGradGradGradGradGradGradGradGradGrad

                          Input orientation:                          
 ---------------------------------------------------------------------
 Center     Atomic      Atomic             Coordinates (Angstroms)
 Number     Number       Type             X           Y           Z
 ---------------------------------------------------------------------
      1          7           0       -3.404431   -1.974642    0.412469
      2          6           0       -2.266686   -2.483803    0.207780
      3          6           0       -1.128071   -1.776627    0.112943
      4          6           0       -1.123187   -0.430311    0.233973
      5          6           0       -2.356819    0.077530    0.451861
      6          6           0       -3.437241   -0.717457    0.530627
      7          6           0        0.000389    0.330505    0.146073
      8          6           0        1.231125   -0.182873   -0.072895
      9          6           0        2.324165    0.594089   -0.154952
     10          7           0        2.308500    1.892802   -0.033435
     11          6           0        1.125683    2.400811    0.176995
     12          6           0       -0.001669    1.676224    0.268564
     13          6           0        3.550383    2.756829   -0.133262
     14          1           0       -2.246908   -3.582967    0.105696
     15          1           0       -0.224033   -2.375783   -0.067246
     16          1           0       -2.560918    1.150540    0.577199
     17          1           0       -4.435363   -0.280589    0.709211
     18          1           0        1.422524   -1.258514   -0.197892
     19          1           0        3.304774    0.121529   -0.334819
     20          1           0        1.073896    3.497990    0.284313
     21          1           0       -0.912401    2.265294    0.449236
     22          1           0        4.435363    2.174543   -0.474496
     23          1           0        3.389080    3.582967   -0.862685
     24          1           0        3.786163    3.196294    0.862685
 ---------------------------------------------------------------------
                    Distance matrix (angstroms):
                    1          2          3          4          5
     1  N    0.000000
     2  C    1.263173   0.000000
     3  C    2.304504   1.343702   0.000000
     4  C    2.760597   2.350554   1.351754   0.000000
     5  C    2.304442   2.574515   2.250019   1.351749   0.000000
     6  C    1.263152   2.143457   2.574600   2.350596   1.343696
     7  C    4.120372   3.614383   2.390507   1.359776   2.390383
     8  C    4.993435   4.196158   2.853137   2.387086   3.635453
     9  C    6.303742   5.539035   4.196427   3.617305   4.748333
    10  N    6.913287   6.336023   5.029528   4.152690   5.029506
    11  C    6.302537   5.947148   4.747052   3.616063   4.195355
    12  C    4.992827   4.737069   3.635269   2.386732   2.852394
    13  C    8.429358   7.837016   6.519262   5.668772   6.512760
    14  H    2.005163   1.104071   2.124785   3.349395   3.678471
    15  H    3.241292   2.063913   1.099427   2.164272   3.291959
    16  H    3.241205   3.664900   3.291943   2.164247   1.099416
    17  H    2.005166   3.131892   3.678566   3.349444   2.124811
    18  H    4.917812   3.908475   2.621182   2.711655   4.060865
    19  H    7.068649   6.174410   4.842892   4.498321   5.716156
    20  H    7.072591   6.851802   5.718357   4.501251   4.847414
    21  H    4.918193   4.944321   4.061617   2.712389   2.621576
    22  H    8.914304   8.190430   6.848987   6.179375   7.168636
    23  H    8.869319   8.362971   7.076846   6.137558   6.857950
    24  H    8.868253   8.326427   7.031483   6.135899   6.901572
                    6          7          8          9         10
     6  C    0.000000
     7  C    3.614333   0.000000
     8  C    4.737474   1.351375   0.000000
     9  C    5.948443   2.357971   1.343555   0.000000
    10  N    6.336021   2.792915   2.338957   1.304480   0.000000
    11  C    5.537953   2.356567   2.597881   2.193352   1.304381
    12  C    4.195419   1.351284   2.256683   2.599978   2.339870
    13  C    7.831877   4.309006   3.744923   2.486267   1.516173
    14  H    3.131870   4.513008   4.867160   6.197616   7.124265
    15  H    3.664997   2.723943   2.631800   3.914223   4.963435
    16  H    2.063861   2.723714   4.071879   4.970887   4.963372
    17  H    1.104080   4.512921   5.721042   6.870448   7.124243
    18  H    4.943764   2.160037   1.099664   2.060810   3.277620
    19  H    6.848917   3.345727   2.112175   1.103295   2.054459
    20  H    6.179079   3.347311   3.701496   3.191985   2.049839
    21  H    3.908740   2.160672   3.295580   3.692334   3.278098
    22  H    8.447001   4.842993   3.998229   2.656520   2.190310
    23  H    8.187406   4.804095   4.411586   3.250896   2.170706
    24  H    8.222243   4.801913   4.338467   3.153489   2.164627
                   11         12         13         14         15
    11  C    0.000000
    12  C    1.343255   0.000000
    13  C    2.470259   3.734467   0.000000
    14  H    6.869138   5.720727   8.594108   0.000000
    15  H    4.969631   4.071974   6.371364   2.362038   0.000000
    16  H    3.913358   2.630847   6.358688   4.767285   4.279170
    17  H    6.196644   4.866306   8.585325   4.007401   4.767392
    18  H    3.690436   3.295238   4.544771   4.354306   1.994118
    19  H    3.194608   3.703203   2.654384   6.688686   4.331356
    20  H    1.103631   2.115637   2.618526   7.823017   6.025730
    21  H    2.060647   1.099581   4.527400   6.008418   4.720191
    22  H    3.380772   4.526335   1.112963   8.839587   6.525434
    23  H    2.757062   4.051243   1.113814   9.168028   7.013844
    24  H    2.860265   4.124471   1.113837   9.106556   6.927805
                   16         17         18         19         20
    16  H    0.000000
    17  H    2.362012   0.000000
    18  H    4.719334   6.007829   0.000000
    19  H    6.024698   7.820577   2.337976   0.000000
    20  H    4.336839   6.694037   4.793578   4.093975   0.000000
    21  H    1.994156   4.354351   4.276432   4.795314   2.343526
    22  H    7.148608   9.280012   4.575980   2.347894   3.691445
    23  H    6.587294   8.866782   5.267754   3.502471   2.585131
    24  H    6.674732   8.927808   5.153341   3.334656   2.789611
                   21         22         23         24
    21  H    0.000000
    22  H    5.427716   0.000000
    23  H    4.686164   1.796958   0.000000
    24  H    4.807723   1.803743   1.812207   0.000000
 Stoichiometry    C11H11N2(1+)
 Framework group  C1[X(C11H11N2)]
 Deg. of freedom    66
 Full point group                 C1      NOp   1
 Largest Abelian subgroup         C1      NOp   1
 Largest concise Abelian subgroup C1      NOp   1
                         Standard orientation:                         
 ---------------------------------------------------------------------
 Center     Atomic      Atomic             Coordinates (Angstroms)
 Number     Number       Type             X           Y           Z
 ---------------------------------------------------------------------
      1          7           0        3.946677   -0.003728   -0.000529
      2          6           0        3.279695    1.068998   -0.000023
      3          6           0        1.937132    1.124309    0.000302
      4          6           0        1.186084    0.000403    0.000090
      5          6           0        1.933815   -1.125707   -0.000504
      6          6           0        3.276533   -1.074456   -0.000811
      7          6           0       -0.173691    0.002279    0.000392
      8          6           0       -0.915997    1.131525    0.000016
      9          6           0       -2.259238    1.102515    0.000427
     10          7           0       -2.966602    0.006476    0.002114
     11          6           0       -2.261395   -1.090836    0.001157
     12          6           0       -0.918579   -1.125156    0.000717
     13          6           0       -4.482679   -0.010064   -0.002252
     14          1           0        3.873038    2.000082    0.000200
     15          1           0        1.515119    2.139516    0.000780
     16          1           0        1.508798   -2.139648   -0.000876
     17          1           0        3.867100   -2.007314   -0.001350
     18          1           0       -0.478998    2.140630   -0.000792
     19          1           0       -2.815419    2.055364    0.000474
     20          1           0       -2.826863   -2.038594    0.001859
     21          1           0       -0.485354   -2.135797    0.000694
     22          1           0       -4.908829    1.005156   -0.164765
     23          1           0       -4.859873   -0.668222   -0.817808
     24          1           0       -4.859321   -0.393263    0.973418
 ---------------------------------------------------------------------
 Rotational constants (GHZ):      3.2473671      0.4160971      0.3697307
 Standard basis: 6-311++G(d,p) (5D, 7F)
 There are   376 symmetry adapted cartesian basis functions of A   symmetry.
 There are   363 symmetry adapted basis functions of A   symmetry.
   363 basis functions,   567 primitive gaussians,   376 cartesian basis functions
    45 alpha electrons       45 beta electrons
       nuclear repulsion energy       732.5905329536 Hartrees.
 NAtoms=   24 NActive=   24 NUniq=   24 SFac= 1.00D+00 NAtFMM=   60 NAOKFM=F Big=F
 Integral buffers will be    131072 words long.
 Raffenetti 2 integral format.
 Two-electron integral symmetry is turned on.
 One-electron integrals computed using PRISM.
 NBasis=   363 RedAO= T EigKep=  1.55D-06  NBF=   363
 NBsUse=   359 1.00D-06 EigRej=  6.79D-07 NBFU=   359
 ExpMin= 3.60D-02 ExpMax= 6.29D+03 ExpMxC= 9.49D+02 IAcc=3 IRadAn=         5 AccDes= 0.00D+00
 Harris functional with IExCor=  402 and IRadAn=       5 diagonalized for initial guess.
 HarFok:  IExCor=  402 AccDes= 0.00D+00 IRadAn=         5 IDoV= 1 UseB2=F ITyADJ=14
 ICtDFT=  3500011 ScaDFX=  1.000000  1.000000  1.000000  1.000000
 FoFCou: FMM=F IPFlag=           0 FMFlag=      100000 FMFlg1=           0
         NFxFlg=           0 DoJE=T BraDBF=F KetDBF=T FulRan=T
         wScrn=  0.000000 ICntrl=     500 IOpCl=  0 I1Cent=   200000004 NGrid=           0
         NMat0=    1 NMatS0=      1 NMatT0=    0 NMatD0=    1 NMtDS0=    0 NMtDT0=    0
 Petite list used in FoFCou.
 Keep R1 ints in memory in canonical form, NReq=2209635337.
 Requested convergence on RMS density matrix=1.00D-08 within 128 cycles.
 Requested convergence on MAX density matrix=1.00D-06.
 Requested convergence on             energy=1.00D-06.
 No special actions if energy rises.
 SCF Done:  E(RB3LYP) =  -535.140237171     A.U. after   14 cycles
            NFock= 14  Conv=0.66D-08     -V/T= 2.0012

 **********************************************************************

            Population analysis using the SCF density.

 **********************************************************************

 Orbital symmetries:
       Occupied  (A) (A) (A) (A) (A) (A) (A) (A) (A) (A) (A) (A)
                 (A) (A) (A) (A) (A) (A) (A) (A) (A) (A) (A) (A)
                 (A) (A) (A) (A) (A) (A) (A) (A) (A) (A) (A) (A)
                 (A) (A) (A) (A) (A) (A) (A) (A) (A)
       Virtual   (A) (A) (A) (A) (A) (A) (A) (A) (A) (A) (A) (A)
                 (A) (A) (A) (A) (A) (A) (A) (A) (A) (A) (A) (A)
                 (A) (A) (A) (A) (A) (A) (A) (A) (A) (A) (A) (A)
                 (A) (A) (A) (A) (A) (A) (A) (A) (A) (A) (A) (A)
                 (A) (A) (A) (A) (A) (A) (A) (A) (A) (A) (A) (A)
                 (A) (A) (A) (A) (A) (A) (A) (A) (A) (A) (A) (A)
                 (A) (A) (A) (A) (A) (A) (A) (A) (A) (A) (A) (A)
                 (A) (A) (A) (A) (A) (A) (A) (A) (A) (A) (A) (A)
                 (A) (A) (A) (A) (A) (A) (A) (A) (A) (A) (A) (A)
                 (A) (A) (A) (A) (A) (A) (A) (A) (A) (A) (A) (A)
                 (A) (A) (A) (A) (A) (A) (A) (A) (A) (A) (A) (A)
                 (A) (A) (A) (A) (A) (A) (A) (A) (A) (A) (A) (A)
                 (A) (A) (A) (A) (A) (A) (A) (A) (A) (A) (A) (A)
                 (A) (A) (A) (A) (A) (A) (A) (A) (A) (A) (A) (A)
                 (A) (A) (A) (A) (A) (A) (A) (A) (A) (A) (A) (A)
                 (A) (A) (A) (A) (A) (A) (A) (A) (A) (A) (A) (A)
                 (A) (A) (A) (A) (A) (A) (A) (A) (A) (A) (A) (A)
                 (A) (A) (A) (A) (A) (A) (A) (A) (A) (A) (A) (A)
                 (A) (A) (A) (A) (A) (A) (A) (A) (A) (A) (A) (A)
                 (A) (A) (A) (A) (A) (A) (A) (A) (A) (A) (A) (A)
                 (A) (A) (A) (A) (A) (A) (A) (A) (A) (A) (A) (A)
                 (A) (A) (A) (A) (A) (A) (A) (A) (A) (A) (A) (A)
                 (A) (A) (A) (A) (A) (A) (A) (A) (A) (A) (A) (A)
                 (A) (A) (A) (A) (A) (A) (A) (A) (A) (A) (A) (A)
                 (A) (A) (A) (A) (A) (A) (A) (A) (A) (A) (A) (A)
                 (A) (A) (A) (A) (A) (A) (A) (A) (A) (A) (A) (A)
                 (A) (A)
 The electronic state is 1-A.
 Alpha  occ. eigenvalues --  -14.59281 -14.42445 -10.40671 -10.40619 -10.39906
 Alpha  occ. eigenvalues --  -10.37242 -10.35895 -10.35833 -10.32899 -10.32027
 Alpha  occ. eigenvalues --  -10.32026 -10.31098 -10.31092  -1.22390  -1.11898
 Alpha  occ. eigenvalues --   -1.05839  -0.97898  -0.97830  -0.91239  -0.90825
 Alpha  occ. eigenvalues --   -0.85685  -0.84582  -0.78034  -0.77608  -0.72991
 Alpha  occ. eigenvalues --   -0.71057  -0.68657  -0.66684  -0.65009  -0.63292
 Alpha  occ. eigenvalues --   -0.61847  -0.60733  -0.58936  -0.58861  -0.58254
 Alpha  occ. eigenvalues --   -0.56425  -0.56216  -0.56022  -0.54391  -0.51644
 Alpha  occ. eigenvalues --   -0.48478  -0.46589  -0.42726  -0.40324  -0.37991
 Alpha virt. eigenvalues --   -0.24968  -0.20123  -0.14341  -0.14227  -0.13484
 Alpha virt. eigenvalues --   -0.12089  -0.11812  -0.10607  -0.09704  -0.08828
 Alpha virt. eigenvalues --   -0.08727  -0.07322  -0.07020  -0.06717  -0.05823
 Alpha virt. eigenvalues --   -0.05513  -0.04557  -0.03824  -0.03706  -0.03173
 Alpha virt. eigenvalues --   -0.02443  -0.01967  -0.01757  -0.01484  -0.00616
 Alpha virt. eigenvalues --   -0.00578   0.00116   0.00542   0.00881   0.01019
 Alpha virt. eigenvalues --    0.01697   0.02301   0.02649   0.02797   0.02980
 Alpha virt. eigenvalues --    0.03448   0.03826   0.04171   0.04268   0.05068
 Alpha virt. eigenvalues --    0.05179   0.05260   0.05905   0.06195   0.06802
 Alpha virt. eigenvalues --    0.06903   0.07572   0.07873   0.08415   0.08612
 Alpha virt. eigenvalues --    0.09245   0.09365   0.09502   0.10271   0.10614
 Alpha virt. eigenvalues --    0.11011   0.11976   0.12561   0.12793   0.13074
 Alpha virt. eigenvalues --    0.13755   0.14510   0.15417   0.15664   0.16070
 Alpha virt. eigenvalues --    0.16653   0.16743   0.17478   0.18910   0.19227
 Alpha virt. eigenvalues --    0.19751   0.20460   0.20587   0.21474   0.21515
 Alpha virt. eigenvalues --    0.22601   0.23141   0.23546   0.24747   0.25178
 Alpha virt. eigenvalues --    0.26323   0.27207   0.28605   0.29791   0.31176
 Alpha virt. eigenvalues --    0.31585   0.32780   0.37029   0.38303   0.38457
 Alpha virt. eigenvalues --    0.38710   0.39729   0.40723   0.41662   0.42593
 Alpha virt. eigenvalues --    0.43024   0.43174   0.44154   0.45827   0.46050
 Alpha virt. eigenvalues --    0.46290   0.46595   0.46827   0.46970   0.47646
 Alpha virt. eigenvalues --    0.49981   0.50374   0.50522   0.52166   0.53018
 Alpha virt. eigenvalues --    0.53631   0.54234   0.54518   0.54832   0.56574
 Alpha virt. eigenvalues --    0.57097   0.57845   0.58614   0.60569   0.61573
 Alpha virt. eigenvalues --    0.63697   0.64044   0.65755   0.66236   0.67890
 Alpha virt. eigenvalues --    0.69741   0.71476   0.72086   0.74475   0.74821
 Alpha virt. eigenvalues --    0.75510   0.75579   0.77147   0.77379   0.78152
 Alpha virt. eigenvalues --    0.79236   0.80521   0.80799   0.82589   0.84142
 Alpha virt. eigenvalues --    0.84627   0.85360   0.85683   0.86238   0.88377
 Alpha virt. eigenvalues --    0.90256   0.90554   0.91064   0.92582   0.92898
 Alpha virt. eigenvalues --    0.94282   0.95894   0.97158   0.97782   0.99933
 Alpha virt. eigenvalues --    1.01895   1.02307   1.02495   1.08566   1.09604
 Alpha virt. eigenvalues --    1.10987   1.18968   1.20366   1.21467   1.23194
 Alpha virt. eigenvalues --    1.26945   1.27550   1.31126   1.32477   1.34717
 Alpha virt. eigenvalues --    1.37001   1.37753   1.38526   1.40998   1.41367
 Alpha virt. eigenvalues --    1.43304   1.44869   1.46588   1.47778   1.48683
 Alpha virt. eigenvalues --    1.49190   1.50509   1.50944   1.53319   1.55514
 Alpha virt. eigenvalues --    1.57681   1.57718   1.58773   1.59201   1.60309
 Alpha virt. eigenvalues --    1.61629   1.64959   1.65154   1.65397   1.66326
 Alpha virt. eigenvalues --    1.66917   1.70754   1.73164   1.73639   1.78291
 Alpha virt. eigenvalues --    1.79919   1.80186   1.81841   1.82098   1.83375
 Alpha virt. eigenvalues --    1.85032   1.87393   1.89492   1.89981   1.90672
 Alpha virt. eigenvalues --    1.91749   1.94545   1.96180   1.97082   1.97483
 Alpha virt. eigenvalues --    1.98338   2.00776   2.03342   2.05897   2.16071
 Alpha virt. eigenvalues --    2.16923   2.19138   2.20135   2.24753   2.24876
 Alpha virt. eigenvalues --    2.25903   2.27112   2.28298   2.31365   2.35250
 Alpha virt. eigenvalues --    2.35690   2.37064   2.37864   2.39591   2.39896
 Alpha virt. eigenvalues --    2.41581   2.43931   2.47910   2.48591   2.50678
 Alpha virt. eigenvalues --    2.53655   2.54427   2.54662   2.55679   2.56943
 Alpha virt. eigenvalues --    2.58600   2.61642   2.61983   2.63157   2.64184
 Alpha virt. eigenvalues --    2.67809   2.68383   2.68759   2.70299   2.71272
 Alpha virt. eigenvalues --    2.73911   2.75706   2.77380   2.81450   2.83329
 Alpha virt. eigenvalues --    2.84486   2.84489   2.85890   2.87254   2.88740
 Alpha virt. eigenvalues --    2.92481   2.93647   2.95514   2.97970   3.14832
 Alpha virt. eigenvalues --    3.19357   3.20326   3.25152   3.29510   3.32577
 Alpha virt. eigenvalues --    3.32708   3.38311   3.41744   3.46667   3.47809
 Alpha virt. eigenvalues --    3.52856   3.53929   3.57093   3.57863   3.62116
 Alpha virt. eigenvalues --    3.64755   3.71714   3.73372   3.77481   3.81795
 Alpha virt. eigenvalues --    3.83881   3.90969   3.97712   4.01050   4.21242
 Alpha virt. eigenvalues --    4.35600   4.35793   4.52865   4.75493   5.08735
 Alpha virt. eigenvalues --    5.24106  23.47370  23.69539  23.75976  23.78296
 Alpha virt. eigenvalues --   23.89543  23.97722  24.07231  24.07940  24.14789
 Alpha virt. eigenvalues --   24.15446  24.21667  35.46624  35.69922
          Condensed to atoms (all electrons):
               1          2          3          4          5          6
     1  N    6.722098  -0.102180   0.346021  -0.005037   0.366681  -0.135020
     2  C   -0.102180   8.244847  -2.515937   0.432649  -0.748673   1.475616
     3  C    0.346021  -2.515937  12.281357  -1.504069  -1.622555  -0.787534
     4  C   -0.005037   0.432649  -1.504069   7.945047  -1.501334   0.412746
     5  C    0.366681  -0.748673  -1.622555  -1.501334  12.479059  -2.732443
     6  C   -0.135020   1.475616  -0.787534   0.412746  -2.732443   8.516813
     7  C    0.007789   0.018363  -0.861453   1.934772  -0.849662   0.026787
     8  C    0.019578  -0.672306   3.236949  -0.638081  -3.001798   0.114170
     9  C   -0.001004   0.048797  -0.091165  -0.209853  -0.090439  -0.024397
    10  N   -0.000176   0.002720  -0.010855  -0.059905   0.006050   0.000607
    11  C   -0.001661  -0.029032  -0.107702  -0.229573  -0.042948   0.052008
    12  C    0.020628   0.089844  -2.882154  -0.558390   3.128423  -0.655891
    13  C   -0.000134   0.003678  -0.000775  -0.040215  -0.003629   0.005075
    14  H   -0.151996   0.533470  -0.172150   0.042634  -0.073767   0.087099
    15  H    0.026774  -0.101043   0.503662  -0.085924   0.037709  -0.056291
    16  H    0.025089  -0.051220   0.040787  -0.087452   0.496572  -0.104744
    17  H   -0.151937   0.081392  -0.069685   0.042991  -0.180323   0.543011
    18  H   -0.003774   0.032124   0.017203  -0.042910  -0.033650   0.014617
    19  H    0.000288  -0.004256   0.011089   0.008284  -0.003615  -0.002627
    20  H    0.000116  -0.001836  -0.002264   0.001955   0.007200  -0.002508
    21  H   -0.002783   0.011763  -0.035504  -0.031039   0.021231   0.036649
    22  H   -0.000018   0.000404  -0.000211  -0.000419   0.000781   0.000379
    23  H   -0.000001   0.000125  -0.000224  -0.000105   0.000880   0.000065
    24  H    0.000004   0.000042   0.000170  -0.000172   0.000380  -0.000033
               7          8          9         10         11         12
     1  N    0.007789   0.019578  -0.001004  -0.000176  -0.001661   0.020628
     2  C    0.018363  -0.672306   0.048797   0.002720  -0.029032   0.089844
     3  C   -0.861453   3.236949  -0.091165  -0.010855  -0.107702  -2.882154
     4  C    1.934772  -0.638081  -0.209853  -0.059905  -0.229573  -0.558390
     5  C   -0.849662  -3.001798  -0.090439   0.006050  -0.042948   3.128423
     6  C    0.026787   0.114170  -0.024397   0.000607   0.052008  -0.655891
     7  C    8.108218  -0.712956  -0.429938  -0.169844  -0.475098  -0.540370
     8  C   -0.712956  10.199401   0.594905  -0.135460   0.339703  -3.428155
     9  C   -0.429938   0.594905   5.214574   0.294865   0.037400   0.347466
    10  N   -0.169844  -0.135460   0.294865   6.560842   0.259904  -0.053177
    11  C   -0.475098   0.339703   0.037400   0.259904   5.233623   0.711873
    12  C   -0.540370  -3.428155   0.347466  -0.053177   0.711873   9.603302
    13  C   -0.103060   0.011348  -0.106047   0.295593  -0.083427  -0.027021
    14  H   -0.005507   0.005340  -0.000496  -0.000034   0.000334  -0.007175
    15  H   -0.048958   0.058120  -0.003093  -0.000951  -0.004867  -0.016728
    16  H   -0.047502  -0.014083  -0.003381  -0.001415  -0.002721   0.055234
    17  H   -0.005262  -0.006489   0.000138  -0.000033   0.000048   0.004745
    18  H   -0.039354   0.379509  -0.025295   0.022800   0.005134  -0.009703
    19  H    0.068617   0.027661   0.362593  -0.070110   0.004747  -0.029734
    20  H    0.039790  -0.019168   0.014059  -0.082864   0.377428   0.023494
    21  H   -0.021076  -0.023894  -0.004393   0.028184  -0.031742   0.368861
    22  H    0.001753   0.001234   0.017739  -0.060927   0.013592  -0.003870
    23  H    0.008347  -0.007589  -0.012986  -0.027453  -0.003143   0.003189
    24  H    0.008930  -0.003385  -0.022223  -0.004004  -0.023564  -0.001454
              13         14         15         16         17         18
     1  N   -0.000134  -0.151996   0.026774   0.025089  -0.151937  -0.003774
     2  C    0.003678   0.533470  -0.101043  -0.051220   0.081392   0.032124
     3  C   -0.000775  -0.172150   0.503662   0.040787  -0.069685   0.017203
     4  C   -0.040215   0.042634  -0.085924  -0.087452   0.042991  -0.042910
     5  C   -0.003629  -0.073767   0.037709   0.496572  -0.180323  -0.033650
     6  C    0.005075   0.087099  -0.056291  -0.104744   0.543011   0.014617
     7  C   -0.103060  -0.005507  -0.048958  -0.047502  -0.005262  -0.039354
     8  C    0.011348   0.005340   0.058120  -0.014083  -0.006489   0.379509
     9  C   -0.106047  -0.000496  -0.003093  -0.003381   0.000138  -0.025295
    10  N    0.295593  -0.000034  -0.000951  -0.001415  -0.000033   0.022800
    11  C   -0.083427   0.000334  -0.004867  -0.002721   0.000048   0.005134
    12  C   -0.027021  -0.007175  -0.016728   0.055234   0.004745  -0.009703
    13  C    5.191721   0.000007  -0.001237  -0.001338   0.000011   0.009884
    14  H    0.000007   0.549543  -0.018433  -0.001222   0.007244   0.003439
    15  H   -0.001237  -0.018433   0.551723   0.000050  -0.001368   0.009069
    16  H   -0.001338  -0.001222   0.000050   0.549736  -0.017684  -0.000973
    17  H    0.000011   0.007244  -0.001368  -0.017684   0.549716   0.000465
    18  H    0.009884   0.003439   0.009069  -0.000973   0.000465   0.497700
    19  H   -0.028646  -0.000304   0.002081   0.000004  -0.000031  -0.021498
    20  H   -0.012572   0.000005  -0.000195   0.001313  -0.000169   0.000183
    21  H    0.009739   0.000317  -0.000845   0.011178   0.002715   0.000228
    22  H    0.391554   0.000014  -0.000249   0.000038   0.000003   0.003653
    23  H    0.397204  -0.000002   0.000033  -0.000082   0.000002  -0.000408
    24  H    0.400676  -0.000005   0.000099   0.000005  -0.000002  -0.000732
              19         20         21         22         23         24
     1  N    0.000288   0.000116  -0.002783  -0.000018  -0.000001   0.000004
     2  C   -0.004256  -0.001836   0.011763   0.000404   0.000125   0.000042
     3  C    0.011089  -0.002264  -0.035504  -0.000211  -0.000224   0.000170
     4  C    0.008284   0.001955  -0.031039  -0.000419  -0.000105  -0.000172
     5  C   -0.003615   0.007200   0.021231   0.000781   0.000880   0.000380
     6  C   -0.002627  -0.002508   0.036649   0.000379   0.000065  -0.000033
     7  C    0.068617   0.039790  -0.021076   0.001753   0.008347   0.008930
     8  C    0.027661  -0.019168  -0.023894   0.001234  -0.007589  -0.003385
     9  C    0.362593   0.014059  -0.004393   0.017739  -0.012986  -0.022223
    10  N   -0.070110  -0.082864   0.028184  -0.060927  -0.027453  -0.004004
    11  C    0.004747   0.377428  -0.031742   0.013592  -0.003143  -0.023564
    12  C   -0.029734   0.023494   0.368861  -0.003870   0.003189  -0.001454
    13  C   -0.028646  -0.012572   0.009739   0.391554   0.397204   0.400676
    14  H   -0.000304   0.000005   0.000317   0.000014  -0.000002  -0.000005
    15  H    0.002081  -0.000195  -0.000845  -0.000249   0.000033   0.000099
    16  H    0.000004   0.001313   0.011178   0.000038  -0.000082   0.000005
    17  H   -0.000031  -0.000169   0.002715   0.000003   0.000002  -0.000002
    18  H   -0.021498   0.000183   0.000228   0.003653  -0.000408  -0.000732
    19  H    0.458895   0.000074  -0.000618  -0.007977   0.000209   0.001978
    20  H    0.000074   0.448619  -0.017544   0.002864  -0.003692  -0.001082
    21  H   -0.000618  -0.017544   0.491609  -0.000593   0.001508   0.000218
    22  H   -0.007977   0.002864  -0.000593   0.499142  -0.021099  -0.020324
    23  H    0.000209  -0.003692   0.001508  -0.021099   0.489175  -0.041562
    24  H    0.001978  -0.001082   0.000218  -0.020324  -0.041562   0.466220
 Mulliken charges:
               1
     1  N    0.020654
     2  C   -0.749352
     3  C    0.226996
     4  C    0.173399
     5  C    0.339871
     6  C   -0.784155
     7  C    0.086671
     8  C   -0.324554
     9  C    0.092174
    10  N    0.205642
    11  C   -0.000317
    12  C   -0.143234
    13  C   -0.308390
    14  H    0.201645
    15  H    0.150861
    16  H    0.153810
    17  H    0.200501
    18  H    0.182290
    19  H    0.222895
    20  H    0.226794
    21  H    0.185831
    22  H    0.182537
    23  H    0.217609
    24  H    0.239820
 Sum of Mulliken charges =   1.00000
 Mulliken charges with hydrogens summed into heavy atoms:
               1
     1  N    0.020654
     2  C   -0.547706
     3  C    0.377857
     4  C    0.173399
     5  C    0.493681
     6  C   -0.583654
     7  C    0.086671
     8  C   -0.142264
     9  C    0.315069
    10  N    0.205642
    11  C    0.226477
    12  C    0.042597
    13  C    0.331576
 Electronic spatial extent (au):  <R**2>=           2849.4583
 Charge=              1.0000 electrons
 Dipole moment (field-independent basis, Debye):
    X=            -10.0921    Y=             -0.0078    Z=             -0.0030  Tot=             10.0921
 Quadrupole moment (field-independent basis, Debye-Ang):
   XX=            -30.7038   YY=            -56.1878   ZZ=            -75.9696
   XY=              0.0403   XZ=              0.0435   YZ=             -0.0036
 Traceless Quadrupole moment (field-independent basis, Debye-Ang):
   XX=             23.5833   YY=             -1.9007   ZZ=            -21.6825
   XY=              0.0403   XZ=              0.0435   YZ=             -0.0036
 Octapole moment (field-independent basis, Debye-Ang**2):
  XXX=           -228.8043  YYY=              0.8876  ZZZ=              0.4214  XYY=             -4.4715
  XXY=              0.2283  XXZ=             -0.3290  XZZ=             -8.4347  YZZ=             -0.8716
  YYZ=             -0.4050  XYZ=              0.0401
 Hexadecapole moment (field-independent basis, Debye-Ang**3):
 XXXX=          -2579.8794 YYYY=           -434.3401 ZZZZ=            -86.0770 XXXY=             -1.4852
 XXXZ=              2.1974 YYYX=             -4.3643 YYYZ=              0.0193 ZZZX=             -2.0862
 ZZZY=             -0.0100 XXYY=           -494.5047 XXZZ=           -549.2881 YYZZ=           -108.9608
 XXYZ=             -0.1581 YYXZ=              2.0676 ZZXY=              4.3360
 N-N= 7.325905329536D+02 E-N=-2.694064868584D+03  KE= 5.345050467388D+02

 **********************************************************************

            Electrostatic Properties Using The SCF Density

 **********************************************************************

       Atomic Center    1 is at   3.946677 -0.003728 -0.000529
       Atomic Center    2 is at   3.279695  1.068998 -0.000023
       Atomic Center    3 is at   1.937132  1.124309  0.000302
       Atomic Center    4 is at   1.186084  0.000403  0.000090
       Atomic Center    5 is at   1.933815 -1.125707 -0.000504
       Atomic Center    6 is at   3.276533 -1.074456 -0.000811
       Atomic Center    7 is at  -0.173691  0.002279  0.000392
       Atomic Center    8 is at  -0.915997  1.131525  0.000016
       Atomic Center    9 is at  -2.259238  1.102515  0.000427
       Atomic Center   10 is at  -2.966602  0.006476  0.002114
       Atomic Center   11 is at  -2.261395 -1.090836  0.001157
       Atomic Center   12 is at  -0.918579 -1.125156  0.000717
       Atomic Center   13 is at  -4.482679 -0.010064 -0.002252
       Atomic Center   14 is at   3.873038  2.000082  0.000200
       Atomic Center   15 is at   1.515119  2.139516  0.000780
       Atomic Center   16 is at   1.508798 -2.139648 -0.000876
       Atomic Center   17 is at   3.867100 -2.007314 -0.001350
       Atomic Center   18 is at  -0.478998  2.140630 -0.000792
       Atomic Center   19 is at  -2.815419  2.055364  0.000474
       Atomic Center   20 is at  -2.826863 -2.038594  0.001859
       Atomic Center   21 is at  -0.485354 -2.135797  0.000694
       Atomic Center   22 is at  -4.908829  1.005156 -0.164765
       Atomic Center   23 is at  -4.859873 -0.668222 -0.817808
       Atomic Center   24 is at  -4.859321 -0.393263  0.973418
 -----------------------------------------------------------------

              Electrostatic Properties (Atomic Units)

 -----------------------------------------------------------------
    Center     Electric         -------- Electric Field --------
               Potential          X             Y             Z
 -----------------------------------------------------------------
    1 Atom    -18.299476      0.058221     -0.000093     -0.000014
    2 Atom    -14.634974      0.002062      0.022431      0.000008
    3 Atom    -14.644191     -0.003493      0.013494      0.000004
    4 Atom    -14.626470      0.010782     -0.000015     -0.000013
    5 Atom    -14.644142     -0.003548     -0.013475     -0.000003
    6 Atom    -14.634957      0.002008     -0.022428     -0.000010
    7 Atom    -14.584990     -0.003311      0.000186      0.000029
    8 Atom    -14.595941      0.004852      0.013182      0.000031
    9 Atom    -14.547174      0.000165      0.023693     -0.000042
   10 Atom    -18.119713     -0.016286      0.000407     -0.000180
   11 Atom    -14.547620      0.000224     -0.023647     -0.000015
   12 Atom    -14.595337      0.004597     -0.013290      0.000050
   13 Atom    -14.545667     -0.012372     -0.000762      0.000294
   14 Atom     -0.999312      0.001530      0.009830      0.000003
   15 Atom     -0.964629     -0.006525      0.005900      0.000006
   16 Atom     -0.964559     -0.006541     -0.005890     -0.000002
   17 Atom     -0.999286      0.001498     -0.009832     -0.000003
   18 Atom     -0.923328      0.005020      0.004162     -0.000039
   19 Atom     -0.905346     -0.004141      0.004180     -0.000093
   20 Atom     -0.905049     -0.003693     -0.004715     -0.000078
   21 Atom     -0.922971      0.005079     -0.004216     -0.000037
   22 Atom     -0.916085      0.006307      0.004085     -0.000239
   23 Atom     -0.919263      0.003443     -0.002537     -0.002505
   24 Atom     -0.920758      0.002184     -0.001401      0.003406
 -----------------------------------------------------------------
 -----------------------------------------------------
    Center         ---- Electric Field Gradient ----
                     XX            YY            ZZ
 -----------------------------------------------------
    1 Atom     -813.206828   -814.615726   -815.407454
    2 Atom     -500.967338   -501.003945   -501.559636
    3 Atom     -500.886464   -501.021056   -501.466502
    4 Atom     -500.885108   -500.749536   -501.307976
    5 Atom     -500.886972   -501.021335   -501.467009
    6 Atom     -500.966884   -501.003015   -501.558809
    7 Atom     -501.034647   -501.061262   -501.837848
    8 Atom     -500.879637   -500.856356   -501.352597
    9 Atom     -500.820791   -501.061589   -501.400621
   10 Atom     -812.717963   -812.520739   -812.298223
   11 Atom     -500.811307   -501.048223   -501.380007
   12 Atom     -500.880729   -500.856978   -501.358518
   13 Atom     -500.883219   -500.126779   -500.137496
   14 Atom       -1.798743     -1.980711     -1.668947
   15 Atom       -1.752208     -2.030786     -1.653724
   16 Atom       -1.753229     -2.029973     -1.653801
   17 Atom       -1.797656     -1.981754     -1.668931
   18 Atom       -1.726144     -1.996564     -1.630186
   19 Atom       -1.763259     -1.950402     -1.630873
   20 Atom       -1.764935     -1.946918     -1.630865
   21 Atom       -1.724963     -1.997713     -1.630334
   22 Atom       -1.690289     -1.957428     -1.621804
   23 Atom       -1.681282     -1.760315     -1.831544
   24 Atom       -1.681563     -1.666534     -1.925924
 -----------------------------------------------------
 -----------------------------------------------------
    Center         ---- Electric Field Gradient ----
                     XY            XZ            YZ
 -----------------------------------------------------
    1 Atom       -0.002055     -0.000514      0.000284
    2 Atom        0.031157     -0.000116      0.000192
    3 Atom        0.030448     -0.000050      0.000231
    4 Atom        0.000223     -0.000182      0.000198
    5 Atom       -0.030969     -0.000126      0.000185
    6 Atom       -0.031212     -0.000158      0.000233
    7 Atom       -0.000490     -0.000736     -0.000282
    8 Atom       -0.021595     -0.000460     -0.000529
    9 Atom       -0.142130      0.001807     -0.000363
   10 Atom       -0.002099     -0.002515      0.000117
   11 Atom        0.138678      0.001795      0.000273
   12 Atom        0.021637     -0.000525      0.000177
   13 Atom       -0.008001     -0.004543     -0.000378
   14 Atom       -0.178925     -0.000039     -0.000078
   15 Atom        0.154230      0.000074     -0.000172
   16 Atom       -0.155081     -0.000043     -0.000136
   17 Atom        0.178370      0.000106     -0.000176
   18 Atom       -0.149834      0.000124      0.000315
   19 Atom        0.170058     -0.000266      0.000185
   20 Atom       -0.170918     -0.000154      0.000041
   21 Atom        0.148968      0.000015     -0.000039
   22 Atom        0.122747     -0.020141      0.054031
   23 Atom       -0.069886     -0.088485     -0.175147
   24 Atom       -0.041033      0.106414      0.122142
 -----------------------------------------------------
 -----------------------------------------------------
    Center         ---- Electric Field Gradient ----
                   ----       Eigenvalues       ----
 -----------------------------------------------------
    1 Atom     -815.407454   -814.615729   -813.206825
    2 Atom     -501.559636   -501.021777   -500.949506
    3 Atom     -501.466502   -501.027623   -500.879896
    4 Atom     -501.307976   -500.885108   -500.749536
    5 Atom     -501.467010   -501.028130   -500.880177
    6 Atom     -501.558809   -501.021012   -500.948887
    7 Atom     -501.837849   -501.061271   -501.034637
    8 Atom     -501.352598   -500.892528   -500.843464
    9 Atom     -501.400627   -501.127461   -500.754914
   10 Atom     -812.718001   -812.520717   -812.298208
   11 Atom     -501.380012   -501.112148   -500.747376
   12 Atom     -501.358518   -500.893535   -500.844172
   13 Atom     -500.883331   -500.137479   -500.126685
   14 Atom       -2.090456     -1.688998     -1.668947
   15 Atom       -2.099315     -1.683680     -1.653724
   16 Atom       -2.099440     -1.683763     -1.653801
   17 Atom       -2.090426     -1.688985     -1.668931
   18 Atom       -2.063176     -1.659532     -1.630186
   19 Atom       -2.050932     -1.662730     -1.630872
   20 Atom       -2.049557     -1.662297     -1.630864
   21 Atom       -2.063302     -1.659374     -1.630334
   22 Atom       -2.013745     -1.642478     -1.613298
   23 Atom       -2.012980     -1.643084     -1.617077
   24 Atom       -2.013561     -1.642431     -1.618028
 -----------------------------------------------------
 -----------------------------------------------------
    Center         ---- Electric Field Gradient ----
                       ( tensor representation )
                   3XX-RR        3YY-RR        3ZZ-RR
 -----------------------------------------------------
    1 Atom        1.203175     -0.205723     -0.997451
    2 Atom        0.209635      0.173028     -0.382663
    3 Atom        0.238210      0.103618     -0.341828
    4 Atom        0.095766      0.231337     -0.327103
    5 Atom        0.238134      0.103770     -0.341904
    6 Atom        0.209352      0.173222     -0.382573
    7 Atom        0.276605      0.249991     -0.526596
    8 Atom        0.149893      0.173174     -0.323067
    9 Atom        0.273543      0.032744     -0.306287
   10 Atom       -0.205655     -0.008431      0.214085
   11 Atom        0.268539      0.031623     -0.300161
   12 Atom        0.151346      0.175097     -0.326443
   13 Atom       -0.500721      0.255719      0.245002
   14 Atom        0.017390     -0.164577      0.147187
   15 Atom        0.060031     -0.218546      0.158515
   16 Atom        0.059105     -0.217639      0.158533
   17 Atom        0.018457     -0.165640      0.147183
   18 Atom        0.058154     -0.212266      0.154112
   19 Atom        0.018252     -0.168891      0.150638
   20 Atom        0.015971     -0.166012      0.150041
   21 Atom        0.059374     -0.213376      0.154002
   22 Atom        0.066218     -0.200921      0.134703
   23 Atom        0.076432     -0.002602     -0.073831
   24 Atom        0.076444      0.091473     -0.167917
 -----------------------------------------------------
 -----------------------------------------------------
    Center         ---- Electric Field Gradient ----
                       ( tensor representation )
                   ----       Eigenvalues       ----
 -----------------------------------------------------
    1 Atom       -0.997451     -0.205726      1.203178
    2 Atom       -0.382663      0.155196      0.227467
    3 Atom       -0.341828      0.097051      0.244778
    4 Atom       -0.327103      0.095765      0.231337
    5 Atom       -0.341904      0.096976      0.244928
    6 Atom       -0.382573      0.155224      0.227349
    7 Atom       -0.526597      0.249982      0.276615
    8 Atom       -0.323068      0.137002      0.186066
    9 Atom       -0.306293     -0.033127      0.339420
   10 Atom       -0.205692     -0.008408      0.214100
   11 Atom       -0.300167     -0.032302      0.332469
   12 Atom       -0.326443      0.138540      0.187903
   13 Atom       -0.500833      0.245019      0.255814
   14 Atom       -0.274323      0.127136      0.147187
   15 Atom       -0.287075      0.128560      0.158515
   16 Atom       -0.287105      0.128572      0.158533
   17 Atom       -0.274312      0.127129      0.147183
   18 Atom       -0.278878      0.124766      0.154112
   19 Atom       -0.269421      0.118781      0.150639
   20 Atom       -0.268651      0.118609      0.150042
   21 Atom       -0.278965      0.124963      0.154002
   22 Atom       -0.257238      0.114029      0.143209
   23 Atom       -0.255267      0.114630      0.140637
   24 Atom       -0.255555      0.115576      0.139979
 -----------------------------------------------------
 Calling FoFJK, ICntrl=      2127 FMM=F ISym2X=0 I1Cent= 0 IOpClX= 0 NMat=1 NMatS=1 NMatT=0.
 ***** Axes restored to original set *****
 -------------------------------------------------------------------
 Center     Atomic                   Forces (Hartrees/Bohr)
 Number     Number              X              Y              Z
 -------------------------------------------------------------------
      1        7          -0.067440901   -0.045626628    0.005271096
      2        6           0.032216069   -0.084154943   -0.012083541
      3        6           0.060215270   -0.045446222   -0.012507047
      4        6          -0.041734542   -0.028270553    0.003199093
      5        6          -0.018623446    0.073613325    0.009247511
      6        6          -0.064774001    0.062076558    0.014649281
      7        6           0.030429864    0.019630014   -0.002437316
      8        6           0.030839821   -0.055896140   -0.009212355
      9        6           0.064754152   -0.046417844   -0.013034677
     10        7           0.041953024    0.025299044   -0.005829518
     11        6          -0.018431575    0.078240565    0.009928833
     12        6          -0.038435340    0.051631241    0.010292573
     13        6           0.006340543    0.006850439    0.000665870
     14        1           0.004166064    0.009118995    0.000242256
     15        1          -0.005953893    0.008781095    0.001625839
     16        1           0.005760834   -0.008901806   -0.001608760
     17        1           0.009933980    0.000422395   -0.001344870
     18        1          -0.005106515    0.011611528    0.001740254
     19        1          -0.010406864    0.007032445    0.001987478
     20        1           0.001593432   -0.012213233   -0.001442733
     21        1           0.008584848   -0.009212301   -0.002069739
     22        1          -0.017044552    0.001765895    0.004883095
     23        1          -0.002636687   -0.012598072    0.009601709
     24        1          -0.006199587   -0.007335795   -0.011764331
 -------------------------------------------------------------------
 Cartesian Forces:  Max     0.084154943 RMS     0.029963682

 GradGradGradGradGradGradGradGradGradGradGradGradGradGradGradGradGradGrad
 Berny optimization.
 FormGI is forming the generalized inverse of G from B-inverse, IUseBI=4.
 Internal  Forces:  Max     0.104356586 RMS     0.023371084
 Search for a local minimum.
 Step number   1 out of a maximum of  129
 All quantities printed in internal units (Hartrees-Bohrs-Radians)
 Mixed Optimization -- RFO/linear search
 Second derivative matrix not updated -- first step.
 ITU=  0
     Eigenvalues ---    0.00230   0.01764   0.02621   0.02696   0.02700
     Eigenvalues ---    0.02750   0.02754   0.02773   0.02777   0.02781
     Eigenvalues ---    0.02786   0.02842   0.02887   0.02889   0.02899
     Eigenvalues ---    0.02937   0.03017   0.03068   0.03340   0.06900
     Eigenvalues ---    0.07080   0.16000   0.16000   0.16000   0.16000
     Eigenvalues ---    0.16000   0.16000   0.16000   0.16000   0.16000
     Eigenvalues ---    0.16000   0.16000   0.22000   0.22000   0.22817
     Eigenvalues ---    0.22938   0.23873   0.24000   0.25000   0.25000
     Eigenvalues ---    0.25000   0.30738   0.32197   0.32200   0.32288
     Eigenvalues ---    0.33235   0.33236   0.33284   0.33320   0.33719
     Eigenvalues ---    0.33728   0.33746   0.33747   0.49366   0.49373
     Eigenvalues ---    0.51284   0.51886   0.52993   0.55133   0.55203
     Eigenvalues ---    0.56381   0.56448   0.63216   0.64947   0.74704
     Eigenvalues ---    0.76882
 RFO step:  Lambda=-9.76221043D-02 EMin= 2.30000000D-03
 Linear search not attempted -- first point.
 Maximum step size (   0.300) exceeded in Quadratic search.
    -- Step size scaled by   0.756
 Iteration  1 RMS(Cart)=  0.05074107 RMS(Int)=  0.00031331
 Iteration  2 RMS(Cart)=  0.00055290 RMS(Int)=  0.00003770
 Iteration  3 RMS(Cart)=  0.00000014 RMS(Int)=  0.00003770
 Variable       Old X    -DE/DX   Delta X   Delta X   Delta X     New X
                                 (Linear)    (Quad)   (Total)
    R1        2.38705   0.09356   0.00000   0.08218   0.08219   2.46924
    R2        2.38701   0.09353   0.00000   0.08215   0.08216   2.46917
    R3        2.53923   0.05196   0.00000   0.05951   0.05951   2.59874
    R4        2.08639  -0.00903   0.00000  -0.01587  -0.01587   2.07053
    R5        2.55444   0.06500   0.00000   0.07343   0.07341   2.62786
    R6        2.07762  -0.00995   0.00000  -0.01728  -0.01728   2.06034
    R7        2.55444   0.06500   0.00000   0.07344   0.07342   2.62786
    R8        2.56960   0.10436   0.00000   0.12569   0.12569   2.69529
    R9        2.53922   0.05202   0.00000   0.05957   0.05957   2.59879
   R10        2.07760  -0.00994   0.00000  -0.01727  -0.01727   2.06033
   R11        2.08641  -0.00903   0.00000  -0.01588  -0.01588   2.07053
   R12        2.55373   0.06602   0.00000   0.07711   0.07708   2.63081
   R13        2.55356   0.06711   0.00000   0.07838   0.07835   2.63191
   R14        2.53895   0.03658   0.00000   0.04176   0.04176   2.58071
   R15        2.07806  -0.01244   0.00000  -0.02163  -0.02163   2.05643
   R16        2.46511   0.05637   0.00000   0.05648   0.05651   2.52162
   R17        2.08492  -0.01259   0.00000  -0.02208  -0.02208   2.06284
   R18        2.46492   0.05741   0.00000   0.05751   0.05754   2.52246
   R19        2.86515  -0.02268   0.00000  -0.04232  -0.04232   2.82283
   R20        2.53838   0.03572   0.00000   0.04079   0.04079   2.57918
   R21        2.08556  -0.01236   0.00000  -0.02170  -0.02170   2.06386
   R22        2.07791  -0.01239   0.00000  -0.02152  -0.02152   2.05638
   R23        2.10320  -0.01597   0.00000  -0.02871  -0.02871   2.07448
   R24        2.10480  -0.01525   0.00000  -0.02747  -0.02747   2.07733
   R25        2.10485  -0.01473   0.00000  -0.02653  -0.02653   2.07832
    A1        2.02609   0.00551   0.00000   0.02804   0.02808   2.05417
    A2        2.16824  -0.00963   0.00000  -0.01702  -0.01701   2.15123
    A3        2.01796   0.00937   0.00000   0.02189   0.02188   2.03984
    A4        2.09699   0.00026   0.00000  -0.00487  -0.00487   2.09212
    A5        2.11872  -0.00255   0.00000  -0.01187  -0.01189   2.10683
    A6        2.00593   0.00546   0.00000   0.01822   0.01823   2.02416
    A7        2.15854  -0.00291   0.00000  -0.00635  -0.00634   2.15220
    A8        1.96635   0.01887   0.00000   0.02977   0.02974   1.99608
    A9        2.15851  -0.00946   0.00000  -0.01493  -0.01491   2.14360
   A10        2.15833  -0.00941   0.00000  -0.01484  -0.01482   2.14350
   A11        2.11880  -0.00257   0.00000  -0.01191  -0.01192   2.10687
   A12        2.15852  -0.00290   0.00000  -0.00631  -0.00630   2.15221
   A13        2.00587   0.00547   0.00000   0.01822   0.01823   2.02410
   A14        2.16818  -0.00963   0.00000  -0.01701  -0.01700   2.15118
   A15        2.01798   0.00937   0.00000   0.02188   0.02188   2.03986
   A16        2.09703   0.00025   0.00000  -0.00487  -0.00488   2.09215
   A17        2.15370  -0.00301   0.00000  -0.00650  -0.00647   2.14723
   A18        2.15327  -0.00295   0.00000  -0.00636  -0.00633   2.14694
   A19        1.97622   0.00596   0.00000   0.01286   0.01280   1.98901
   A20        2.13072  -0.00154   0.00000  -0.00325  -0.00328   2.12744
   A21        2.15140  -0.00236   0.00000  -0.00755  -0.00754   2.14386
   A22        2.00106   0.00390   0.00000   0.01080   0.01082   2.01188
   A23        2.16551  -0.01260   0.00000  -0.02851  -0.02849   2.13703
   A24        2.07755   0.00820   0.00000   0.01981   0.01980   2.09735
   A25        2.04012   0.00441   0.00000   0.00870   0.00869   2.04881
   A26        1.99727   0.02250   0.00000   0.05085   0.05091   2.04817
   A27        2.15482  -0.01144   0.00000  -0.02582  -0.02585   2.12897
   A28        2.13108  -0.01106   0.00000  -0.02501  -0.02504   2.10604
   A29        2.16755  -0.01300   0.00000  -0.02933  -0.02930   2.13825
   A30        2.03245   0.00542   0.00000   0.01149   0.01147   2.04392
   A31        2.08319   0.00758   0.00000   0.01784   0.01783   2.10101
   A32        2.12910  -0.00132   0.00000  -0.00261  -0.00263   2.12647
   A33        2.15277  -0.00253   0.00000  -0.00806  -0.00805   2.14472
   A34        2.00132   0.00385   0.00000   0.01067   0.01068   2.01200
   A35        1.95341  -0.00976   0.00000  -0.02910  -0.02928   1.92412
   A36        1.92536  -0.00452   0.00000  -0.01307  -0.01320   1.91216
   A37        1.91703  -0.00239   0.00000  -0.00678  -0.00687   1.91016
   A38        1.87803   0.00711   0.00000   0.02040   0.02018   1.89821
   A39        1.88836   0.00601   0.00000   0.01724   0.01710   1.90546
   A40        1.90031   0.00425   0.00000   0.01337   0.01333   1.91364
    D1        0.00007  -0.00001   0.00000  -0.00003  -0.00003   0.00004
    D2       -3.14157   0.00000   0.00000  -0.00001  -0.00001  -3.14159
    D3       -0.00009   0.00000   0.00000   0.00002   0.00002  -0.00007
    D4        3.14149   0.00000   0.00000   0.00001   0.00001   3.14151
    D5       -0.00001   0.00000   0.00000   0.00002   0.00002   0.00001
    D6        3.14155   0.00000   0.00000   0.00000   0.00000   3.14155
    D7       -3.14155   0.00000   0.00000   0.00000   0.00000  -3.14155
    D8        0.00001   0.00000   0.00000  -0.00002  -0.00002  -0.00001
    D9       -0.00003   0.00000   0.00000   0.00000   0.00000  -0.00003
   D10       -3.14158  -0.00001   0.00000  -0.00003  -0.00003   3.14157
   D11       -3.14159   0.00000   0.00000   0.00002   0.00002  -3.14157
   D12        0.00005   0.00000   0.00000  -0.00001  -0.00001   0.00004
   D13        0.00001   0.00000   0.00000   0.00000   0.00000   0.00001
   D14       -3.14147   0.00000   0.00000   0.00000   0.00000  -3.14147
   D15        3.14157   0.00000   0.00000   0.00003   0.00003  -3.14159
   D16        0.00009   0.00000   0.00000   0.00003   0.00003   0.00012
   D17        0.00082   0.00001   0.00000   0.00009   0.00008   0.00090
   D18       -3.14111   0.00001   0.00000   0.00004   0.00004  -3.14107
   D19       -3.14073   0.00001   0.00000   0.00005   0.00005  -3.14068
   D20        0.00052   0.00000   0.00000   0.00001   0.00001   0.00053
   D21        0.00005   0.00000   0.00000  -0.00001  -0.00001   0.00004
   D22       -3.14154   0.00000   0.00000   0.00001   0.00001  -3.14153
   D23        3.14154   0.00000   0.00000  -0.00001  -0.00001   3.14153
   D24       -0.00005   0.00000   0.00000   0.00000   0.00000  -0.00004
   D25       -3.14151  -0.00004   0.00000  -0.00024  -0.00024   3.14144
   D26        0.00025  -0.00001   0.00000  -0.00004  -0.00004   0.00021
   D27        0.00039  -0.00003   0.00000  -0.00020  -0.00020   0.00020
   D28       -3.14104   0.00000   0.00000   0.00000   0.00000  -3.14104
   D29        3.14146   0.00004   0.00000   0.00026   0.00026  -3.14146
   D30       -0.00008   0.00000   0.00000   0.00002   0.00002  -0.00005
   D31       -0.00044   0.00003   0.00000   0.00022   0.00022  -0.00021
   D32        3.14121  -0.00001   0.00000  -0.00002  -0.00002   3.14119
   D33        0.00083   0.00000   0.00000  -0.00002  -0.00002   0.00081
   D34        3.14119   0.00000   0.00000  -0.00003  -0.00003   3.14116
   D35       -3.14091  -0.00003   0.00000  -0.00020  -0.00021  -3.14111
   D36       -0.00055  -0.00003   0.00000  -0.00021  -0.00021  -0.00076
   D37       -0.00190  -0.00001   0.00000   0.00014   0.00015  -0.00175
   D38       -3.13779  -0.00022   0.00000  -0.00149  -0.00150  -3.13929
   D39        3.14090   0.00000   0.00000   0.00014   0.00015   3.14105
   D40        0.00501  -0.00022   0.00000  -0.00149  -0.00150   0.00351
   D41        0.00186   0.00001   0.00000  -0.00011  -0.00012   0.00173
   D42       -3.14091   0.00001   0.00000  -0.00013  -0.00014  -3.14105
   D43        3.13784   0.00022   0.00000   0.00148   0.00150   3.13933
   D44       -0.00493   0.00021   0.00000   0.00146   0.00148  -0.00345
   D45        0.15343   0.00019   0.00000   0.00108   0.00103   0.15446
   D46        2.24391  -0.00030   0.00000  -0.00112  -0.00107   2.24285
   D47       -1.94444   0.00060   0.00000   0.00290   0.00284  -1.94160
   D48       -2.98204  -0.00015   0.00000  -0.00091  -0.00092  -2.98295
   D49       -0.89155  -0.00063   0.00000  -0.00310  -0.00301  -0.89457
   D50        1.20327   0.00026   0.00000   0.00092   0.00089   1.20417
   D51       -0.00074  -0.00001   0.00000  -0.00004  -0.00003  -0.00078
   D52        3.14080   0.00003   0.00000   0.00018   0.00019   3.14099
   D53       -3.14113   0.00000   0.00000  -0.00002  -0.00001  -3.14114
   D54        0.00042   0.00003   0.00000   0.00021   0.00021   0.00063
         Item               Value     Threshold  Converged?
 Maximum Force            0.104357     0.000450     NO 
 RMS     Force            0.023371     0.000300     NO 
 Maximum Displacement     0.166419     0.001800     NO 
 RMS     Displacement     0.050473     0.001200     NO 
 Predicted change in Energy=-5.029446D-02
 GradGradGradGradGradGradGradGradGradGradGradGradGradGradGradGradGradGrad

                          Input orientation:                          
 ---------------------------------------------------------------------
 Center     Atomic      Atomic             Coordinates (Angstroms)
 Number     Number       Type             X           Y           Z
 ---------------------------------------------------------------------
      1          7           0       -3.472770   -2.022005    0.417665
      2          6           0       -2.303335   -2.564955    0.205532
      3          6           0       -1.140379   -1.837361    0.109134
      4          6           0       -1.156286   -0.452695    0.236510
      5          6           0       -2.417458    0.088344    0.461230
      6          6           0       -3.525306   -0.722404    0.542399
      7          6           0        0.022034    0.345661    0.144398
      8          6           0        1.286530   -0.191130   -0.081477
      9          6           0        2.399750    0.595413   -0.165734
     10          7           0        2.349899    1.922638   -0.037034
     11          6           0        1.153369    2.473300    0.179435
     12          6           0        0.010801    1.732508    0.271939
     13          6           0        3.573887    2.773427   -0.133915
     14          1           0       -2.274828   -3.655454    0.103032
     15          1           0       -0.231099   -2.411824   -0.069526
     16          1           0       -2.597706    1.156723    0.582812
     17          1           0       -4.512481   -0.281361    0.719823
     18          1           0        1.461352   -1.258269   -0.203406
     19          1           0        3.377894    0.144504   -0.343296
     20          1           0        1.117095    3.559862    0.283637
     21          1           0       -0.899059    2.302019    0.450741
     22          1           0        4.428325    2.172652   -0.471704
     23          1           0        3.402930    3.583113   -0.857511
     24          1           0        3.801160    3.201672    0.853259
 ---------------------------------------------------------------------
                    Distance matrix (angstroms):
                    1          2          3          4          5
     1  N    0.000000
     2  C    1.306666   0.000000
     3  C    2.359944   1.375192   0.000000
     4  C    2.803864   2.403815   1.390603   0.000000
     5  C    2.359906   2.668034   2.337358   1.390603   0.000000
     6  C    1.306629   2.236445   2.668094   2.403865   1.375220
     7  C    4.230150   3.725958   2.473465   1.426287   2.473401
     8  C    5.123689   4.313299   2.938757   2.477273   3.753953
     9  C    6.455828   5.678448   4.304236   3.729037   4.884229
    10  N    7.047726   6.469152   5.132348   4.243862   5.132309
    11  C    6.454896   6.110115   4.883443   3.728164   4.303281
    12  C    5.123756   4.881376   3.754422   2.477592   2.938631
    13  C    8.541415   7.947030   6.598692   5.737561   6.592425
    14  H    2.049930   1.095676   2.143006   3.395087   3.763598
    15  H    3.301174   2.096012   1.090283   2.188108   3.363437
    16  H    3.301109   3.752318   3.363438   2.188114   1.090278
    17  H    2.049912   3.218637   3.763662   3.395143   2.143053
    18  H    5.031361   4.005937   2.683661   2.773897   4.159360
    19  H    7.225263   6.318128   4.954520   4.609946   5.851198
    20  H    7.227867   7.015613   5.852918   4.612060   4.957423
    21  H    5.032123   5.071445   4.160455   2.774978   2.684399
    22  H    8.989629   8.259468   6.886801   6.211432   7.216609
    23  H    8.962069   8.455192   7.138459   6.186362   6.915880
    24  H    8.965858   8.422494   7.096787   6.189592   6.965465
                    6          7          8          9         10
     6  C    0.000000
     7  C    3.725961   0.000000
     8  C    4.881111   1.392162   0.000000
     9  C    6.111005   2.410828   1.365653   0.000000
    10  N    6.469160   2.817576   2.366589   1.334382   0.000000
    11  C    5.677523   2.409978   2.680484   2.280146   1.334831
    12  C    4.313213   1.392745   2.335117   2.681719   2.367064
    13  C    7.942089   4.311283   3.744776   2.474541   1.493778
    14  H    3.218620   4.613698   4.971806   6.324064   7.247264
    15  H    3.752385   2.777330   2.689762   3.996760   5.044816
    16  H    2.095995   2.777240   4.164766   5.084285   5.044763
    17  H    1.095679   4.613685   5.854806   7.023665   7.247255
    18  H    5.070517   2.182934   1.088217   2.078015   3.306867
    19  H    7.013569   3.397073   2.134245   1.091610   2.076615
    20  H    6.321128   3.398475   3.772526   3.261149   2.074401
    21  H    4.006583   2.183939   3.357953   3.764928   3.307203
    22  H    8.524670   4.809665   3.951027   2.587744   2.138059
    23  H    8.276333   4.787001   4.396168   3.226652   2.130548
    24  H    8.316978   4.789685   4.325298   3.129678   2.129486
                   11         12         13         14         15
    11  C    0.000000
    12  C    1.364841   0.000000
    13  C    2.459099   3.734140   0.000000
    14  H    7.022820   5.855149   8.694487   0.000000
    15  H    5.083618   4.165405   6.431865   2.398587   0.000000
    16  H    3.995829   2.689327   6.419968   4.846802   4.331386
    17  H    6.323135   4.971554   8.686192   4.095366   4.846873
    18  H    3.763779   3.357797   4.552165   4.449657   2.052560
    19  H    3.262675   3.773272   2.644520   6.825844   4.431093
    20  H    1.092149   2.136175   2.613169   7.974869   6.132160
    21  H    2.077356   1.088191   4.535559   6.124142   4.789275
    22  H    3.352567   4.501249   1.097769   8.901090   6.549000
    23  H    2.714308   4.025783   1.099277   9.249672   7.054527
    24  H    2.827607   4.106482   1.099800   9.192424   6.972946
                   16         17         18         19         20
    16  H    0.000000
    17  H    2.398587   0.000000
    18  H    4.788140   6.123185   0.000000
    19  H    6.131073   7.973054   2.379175   0.000000
    20  H    4.434448   6.829157   4.854906   4.143540   0.000000
    21  H    2.052935   4.450064   4.321470   4.855686   2.382220
    22  H    7.176993   9.347723   4.543801   2.287636   3.668669
    23  H    6.630953   8.948512   5.257049   3.476935   2.554956
    24  H    6.723128   9.014763   5.146098   3.310163   2.767123
                   21         22         23         24
    21  H    0.000000
    22  H    5.408204   0.000000
    23  H    4.675451   1.785969   0.000000
    24  H    4.802443   1.791018   1.797448   0.000000
 Stoichiometry    C11H11N2(1+)
 Framework group  C1[X(C11H11N2)]
 Deg. of freedom    66
 Full point group                 C1      NOp   1
 Largest Abelian subgroup         C1      NOp   1
 Largest concise Abelian subgroup C1      NOp   1
                         Standard orientation:                         
 ---------------------------------------------------------------------
 Center     Atomic      Atomic             Coordinates (Angstroms)
 Number     Number       Type             X           Y           Z
 ---------------------------------------------------------------------
      1          7           0        4.027051   -0.003401   -0.000382
      2          6           0        3.352579    1.115734    0.000141
      3          6           0        1.978382    1.168047    0.000396
      4          6           0        1.223190    0.000374    0.000113
      5          6           0        1.975267   -1.169308   -0.000474
      6          6           0        3.349628   -1.120709   -0.000721
      7          6           0       -0.203096    0.002207    0.000392
      8          6           0       -0.960374    1.170387   -0.000083
      9          6           0       -2.325793    1.145119    0.000023
     10          7           0       -3.020669    0.005944    0.001497
     11          6           0       -2.327877   -1.135026    0.000827
     12          6           0       -0.963360   -1.164728    0.000720
     13          6           0       -4.514362   -0.009661   -0.001316
     14          1           0        3.934003    2.044416    0.000412
     15          1           0        1.538481    2.165647    0.000881
     16          1           0        1.532730   -2.165735   -0.000869
     17          1           0        3.928569   -2.050946   -0.001243
     18          1           0       -0.514076    2.162875   -0.000888
     19          1           0       -2.891756    2.078552    0.000045
     20          1           0       -2.900573   -2.064978    0.001514
     21          1           0       -0.520192   -2.158590    0.000739
     22          1           0       -4.904517    1.003617   -0.163009
     23          1           0       -4.874070   -0.660372   -0.811005
     24          1           0       -4.878374   -0.386889    0.965511
 ---------------------------------------------------------------------
 Rotational constants (GHZ):      3.0461833      0.4011511      0.3552829
 Standard basis: 6-311++G(d,p) (5D, 7F)
 There are   376 symmetry adapted cartesian basis functions of A   symmetry.
 There are   363 symmetry adapted basis functions of A   symmetry.
   363 basis functions,   567 primitive gaussians,   376 cartesian basis functions
    45 alpha electrons       45 beta electrons
       nuclear repulsion energy       717.6089308633 Hartrees.
 NAtoms=   24 NActive=   24 NUniq=   24 SFac= 1.00D+00 NAtFMM=   60 NAOKFM=F Big=F
 Integral buffers will be    131072 words long.
 Raffenetti 2 integral format.
 Two-electron integral symmetry is turned on.
 One-electron integrals computed using PRISM.
 NBasis=   363 RedAO= T EigKep=  2.21D-06  NBF=   363
 NBsUse=   359 1.00D-06 EigRej=  9.63D-07 NBFU=   359
 Initial guess from the checkpoint file:  "Anth_266.chk"
 B after Tr=     0.000000    0.000000    0.000000
         Rot=    1.000000    0.000001    0.000014   -0.000001 Ang=   0.00 deg.
 ExpMin= 3.60D-02 ExpMax= 6.29D+03 ExpMxC= 9.49D+02 IAcc=3 IRadAn=         5 AccDes= 0.00D+00
[...]
     4  C   -0.014818   0.024658  -0.198964  -0.199261   0.022709   0.061174
     5  C    0.023049   0.024840  -0.185424   0.684456  -0.210941   0.117884
     6  C   -0.000999   0.041330   0.022102  -0.030875   0.511214  -0.010774
     7  C   -0.008627  -0.015925   0.045927   0.054365  -0.016159  -0.163412
     8  C   -0.132125   0.022459  -0.140985   0.113130  -0.013000   0.662944
     9  C    0.006336  -0.001814  -0.022703  -0.010229  -0.000670  -0.038241
    10  N    0.293434   0.000020  -0.001553  -0.000540   0.000011   0.021782
    11  C    0.075719   0.001051  -0.021468  -0.002796  -0.005507   0.007990
    12  C   -0.230309  -0.013105   0.120807  -0.159484   0.024869  -0.155567
    13  C    5.154549   0.000044  -0.002226   0.000282  -0.000101   0.004833
    14  H    0.000044   0.520235  -0.006676   0.001799   0.002949   0.000542
    15  H   -0.002226  -0.006676   0.531808  -0.002050   0.001981  -0.010574
    16  H    0.000282   0.001799  -0.002050   0.530589  -0.006426   0.000246
    17  H   -0.000101   0.002949   0.001981  -0.006426   0.520598  -0.000468
    18  H    0.004833   0.000542  -0.010574   0.000246  -0.000468   0.465056
    19  H   -0.013363   0.000083   0.000895   0.000106   0.000036  -0.011137
    20  H   -0.011624   0.000052  -0.000218   0.001429   0.000041   0.000356
    21  H    0.001830  -0.000481   0.000746  -0.011503   0.000761  -0.001169
    22  H    0.395842  -0.000005   0.000021  -0.000277   0.000001   0.001187
    23  H    0.390515  -0.000004   0.000087  -0.000176  -0.000002  -0.000841
    24  H    0.412495   0.000000  -0.000118   0.000126  -0.000003   0.000554
              19         20         21         22         23         24
     1  N   -0.000059  -0.000083   0.000778  -0.000002   0.000004   0.000004
     2  C    0.000019   0.001088  -0.011218  -0.000023  -0.000044   0.000004
     3  C    0.014336  -0.014479   0.133006   0.002325   0.002943  -0.002238
     4  C   -0.002563  -0.013053   0.087028  -0.001836   0.002510  -0.000758
     5  C   -0.004934   0.028695  -0.220866  -0.002758  -0.004053   0.002354
     6  C    0.000174   0.000009   0.014271   0.000199   0.000044  -0.000117
     7  C    0.030734   0.042524  -0.187911   0.000454   0.003500   0.004438
     8  C    0.003408   0.013481  -0.162638  -0.001591  -0.019172   0.003591
     9  C    0.372572   0.012424   0.000778   0.015672   0.006340  -0.022367
    10  N   -0.068741  -0.066730   0.019151  -0.058174  -0.056222  -0.006406
    11  C    0.017067   0.372827  -0.048810   0.010584  -0.007075  -0.020850
    12  C   -0.002424  -0.016044   0.692711   0.001034   0.046518  -0.021261
    13  C   -0.013363  -0.011624   0.001830   0.395842   0.390515   0.412495
    14  H    0.000083   0.000052  -0.000481  -0.000005  -0.000004   0.000000
    15  H    0.000895  -0.000218   0.000746   0.000021   0.000087  -0.000118
    16  H    0.000106   0.001429  -0.011503  -0.000277  -0.000176   0.000126
    17  H    0.000036   0.000041   0.000761   0.000001  -0.000002  -0.000003
    18  H   -0.011137   0.000356  -0.001169   0.001187  -0.000841   0.000554
    19  H    0.442990   0.001109  -0.000063   0.001686   0.000475  -0.001403
    20  H    0.001109   0.445200  -0.012073  -0.000015  -0.002617   0.001502
    21  H   -0.000063  -0.012073   0.466128   0.000643   0.001852  -0.000917
    22  H    0.001686  -0.000015   0.000643   0.502465  -0.022183  -0.026775
    23  H    0.000475  -0.002617   0.001852  -0.022183   0.496490  -0.026485
    24  H   -0.001403   0.001502  -0.000917  -0.026775  -0.026485   0.451435
 Mulliken charges:
               1
     1  N    0.005724
     2  C   -0.677910
     3  C    0.362340
     4  C   -0.008254
     5  C    0.388034
     6  C   -0.718899
     7  C    0.012776
     8  C    0.273095
     9  C   -0.545542
    10  N    0.197628
    11  C   -0.582190
    12  C    0.279923
    13  C   -0.317306
    14  H    0.211733
    15  H    0.188037
    16  H    0.189919
    17  H    0.211071
    18  H    0.234344
    19  H    0.218996
    20  H    0.216198
    21  H    0.237965
    22  H    0.181527
    23  H    0.187596
    24  H    0.253194
 Sum of Mulliken charges =   1.00000
 Mulliken charges with hydrogens summed into heavy atoms:
               1
     1  N    0.005724
     2  C   -0.466177
     3  C    0.550377
     4  C   -0.008254
     5  C    0.577953
     6  C   -0.507828
     7  C    0.012776
     8  C    0.507439
     9  C   -0.326546
    10  N    0.197628
    11  C   -0.365992
    12  C    0.517888
    13  C    0.305012
 Electronic spatial extent (au):  <R**2>=           2973.7963
 Charge=              1.0000 electrons
 Dipole moment (field-independent basis, Debye):
    X=            -10.3157    Y=              0.0063    Z=              0.0259  Tot=             10.3158
 Quadrupole moment (field-independent basis, Debye-Ang):
   XX=            -32.1854   YY=            -56.1854   ZZ=            -75.2512
   XY=             -0.0539   XZ=             -0.1523   YZ=             -0.7638
 Traceless Quadrupole moment (field-independent basis, Debye-Ang):
   XX=             22.3553   YY=             -1.6448   ZZ=            -20.7105
   XY=             -0.0539   XZ=             -0.1523   YZ=             -0.7638
 Octapole moment (field-independent basis, Debye-Ang**2):
  XXX=           -231.1060  YYY=             -0.7024  ZZZ=              0.6887  XYY=             -4.6928
  XXY=              0.0912  XXZ=              0.5503  XZZ=             -9.4996  YZZ=              0.7549
  YYZ=             -0.6069  XYZ=             15.1623
 Hexadecapole moment (field-independent basis, Debye-Ang**3):
 XXXX=          -2788.3549 YYYY=           -444.1072 ZZZZ=           -133.1642 XXXY=             -1.1517
 XXXZ=             -2.6528 YYYX=              3.4379 YYYZ=             -5.1311 ZZZX=             -3.4120
 ZZZY=             -1.4658 XXYY=           -504.5115 XXZZ=           -571.7962 YYZZ=           -104.7331
 XXYZ=             12.2211 YYXZ=              3.0596 ZZXY=             -3.4390
 N-N= 7.117450996365D+02 E-N=-2.651371316454D+03  KE= 5.328442189691D+02

 **********************************************************************

            Electrostatic Properties Using The SCF Density

 **********************************************************************

       Atomic Center    1 is at   4.050581  0.001859  0.004707
       Atomic Center    2 is at   3.359321  1.092474  0.343185
       Atomic Center    3 is at   1.967785  1.148673  0.348722
       Atomic Center    4 is at   1.245363 -0.000148  0.000031
       Atomic Center    5 is at   1.970556 -1.147876 -0.346366
       Atomic Center    6 is at   3.362024 -1.089716 -0.336054
       Atomic Center    7 is at  -0.228243 -0.000899 -0.002329
       Atomic Center    8 is at  -0.965815  1.145480 -0.350177
       Atomic Center    9 is at  -2.341991  1.118820 -0.349103
       Atomic Center   10 is at  -3.020337 -0.004280 -0.014285
       Atomic Center   11 is at  -2.342149 -1.125125  0.328551
       Atomic Center   12 is at  -0.966032 -1.148807  0.340166
       Atomic Center   13 is at  -4.502546  0.006803  0.024030
       Atomic Center   14 is at   3.942354  1.963468  0.625212
       Atomic Center   15 is at   1.471269  2.061011  0.656841
       Atomic Center   16 is at   1.476397 -2.060834 -0.656402
       Atomic Center   17 is at   3.947234 -1.959857 -0.616202
       Atomic Center   18 is at  -0.468376  2.057485 -0.651326
       Atomic Center   19 is at  -2.939284  1.978563 -0.621442
       Atomic Center   20 is at  -2.939830 -1.986119  0.596166
       Atomic Center   21 is at  -0.468828 -2.061405  0.639953
       Atomic Center   22 is at  -4.871909  0.718594 -0.711008
       Atomic Center   23 is at  -4.872600 -0.986662 -0.219909
       Atomic Center   24 is at  -4.837777  0.294627  1.021218
 -----------------------------------------------------------------

              Electrostatic Properties (Atomic Units)

 -----------------------------------------------------------------
    Center     Electric         -------- Electric Field --------
               Potential          X             Y             Z
 -----------------------------------------------------------------
    1 Atom    -18.287539      0.045980      0.000035      0.000074
    2 Atom    -14.619299     -0.000913      0.005987      0.001916
    3 Atom    -14.631877      0.001527      0.001704      0.000094
    4 Atom    -14.603992      0.002982      0.000004     -0.000001
    5 Atom    -14.631866      0.001533     -0.001707     -0.000090
    6 Atom    -14.619301     -0.000895     -0.005984     -0.001922
    7 Atom    -14.559182      0.003603      0.000019      0.000056
    8 Atom    -14.580486      0.003681      0.001805     -0.000770
    9 Atom    -14.534315      0.004321      0.010197     -0.002986
   10 Atom    -18.117314     -0.006004     -0.000217     -0.000732
   11 Atom    -14.534327      0.004316     -0.010202      0.002945
   12 Atom    -14.580449      0.003683     -0.001762      0.000893
   13 Atom    -14.559316     -0.010732      0.000170      0.000654
   14 Atom     -0.992123      0.010736      0.015552      0.005056
   15 Atom     -0.962687     -0.008636      0.016306      0.005653
   16 Atom     -0.962695     -0.008588     -0.016315     -0.005692
   17 Atom     -0.992132      0.010774     -0.015537     -0.005019
   18 Atom     -0.920280      0.009106      0.016668     -0.005610
   19 Atom     -0.896901     -0.010709      0.015961     -0.005036
   20 Atom     -0.896873     -0.010713     -0.015977      0.004980
   21 Atom     -0.920243      0.009101     -0.016676      0.005587
   22 Atom     -0.924433     -0.006896      0.012140     -0.012773
   23 Atom     -0.924647     -0.006910     -0.017085     -0.004354
   24 Atom     -0.927611     -0.006116      0.004964      0.017214
 -----------------------------------------------------------------
 -----------------------------------------------------
    Center         ---- Electric Field Gradient ----
                     XX            YY            ZZ
 -----------------------------------------------------
    1 Atom     -813.517507   -815.067375   -815.526034
    2 Atom     -500.854712   -500.931256   -501.372661
    3 Atom     -500.773951   -500.902063   -501.229120
    4 Atom     -500.810513   -500.626267   -501.056194
    5 Atom     -500.773352   -500.901596   -501.228879
    6 Atom     -500.854289   -500.931435   -501.372852
    7 Atom     -500.904778   -500.963519   -501.570803
    8 Atom     -500.802709   -500.805019   -501.220363
    9 Atom     -500.756697   -501.048204   -501.294129
   10 Atom     -812.682433   -812.635841   -812.300630
   11 Atom     -500.756000   -501.041655   -501.298883
   12 Atom     -500.802650   -500.804246   -501.221348
   13 Atom     -500.882374   -500.172219   -500.179573
   14 Atom       -1.821648     -1.986615     -1.708730
   15 Atom       -1.787125     -2.008641     -1.700142
   16 Atom       -1.786242     -2.009110     -1.700610
   17 Atom       -1.822616     -1.986053     -1.708332
   18 Atom       -1.764672     -1.989597     -1.682067
   19 Atom       -1.815395     -1.953961     -1.677481
   20 Atom       -1.815381     -1.954829     -1.676269
   21 Atom       -1.764522     -1.990007     -1.681640
   22 Atom       -1.737084     -1.863332     -1.872158
   23 Atom       -1.737191     -2.052143     -1.683192
   24 Atom       -1.718891     -1.688647     -2.038014
 -----------------------------------------------------
 -----------------------------------------------------
    Center         ---- Electric Field Gradient ----
                     XY            XZ            YZ
 -----------------------------------------------------
    1 Atom        0.000934      0.003094      0.151783
    2 Atom        0.077363      0.031031      0.155840
    3 Atom       -0.009342      0.011702      0.134932
    4 Atom       -0.000351      0.000194      0.135020
    5 Atom        0.009013     -0.010172      0.135098
    6 Atom       -0.077781     -0.029457      0.155576
    7 Atom        0.000084      0.000422     -0.197279
    8 Atom        0.020270     -0.009586     -0.148968
    9 Atom       -0.160474      0.057231     -0.090596
   10 Atom        0.004710      0.016029      0.110894
   11 Atom        0.161976     -0.052282     -0.082199
   12 Atom       -0.020147      0.009847     -0.147940
   13 Atom        0.002883      0.008423     -0.002255
   14 Atom       -0.192389     -0.062354     -0.100361
   15 Atom        0.180443      0.058786     -0.115603
   16 Atom       -0.179726     -0.058959     -0.116383
   17 Atom        0.192950      0.062131     -0.099647
   18 Atom       -0.176491      0.056869      0.112965
   19 Atom        0.195201     -0.062719      0.097223
   20 Atom       -0.196038      0.060103      0.095508
   21 Atom        0.176444     -0.056795      0.112450
   22 Atom        0.092270     -0.097110      0.207139
   23 Atom       -0.130074     -0.033274     -0.093819
   24 Atom        0.034145      0.118169     -0.109960
 -----------------------------------------------------
 -----------------------------------------------------
    Center         ---- Electric Field Gradient ----
                   ----       Eigenvalues       ----
 -----------------------------------------------------
    1 Atom     -815.571717   -815.021698   -813.517501
    2 Atom     -501.422204   -500.952434   -500.783992
    3 Atom     -501.277999   -500.853872   -500.773262
    4 Atom     -501.095081   -500.810514   -500.587380
    5 Atom     -501.277756   -500.853350   -500.772720
    6 Atom     -501.422211   -500.952386   -500.783979
    7 Atom     -501.629263   -500.905065   -500.904772
    8 Atom     -501.268286   -500.811738   -500.748067
    9 Atom     -501.323938   -501.102341   -500.672751
   10 Atom     -812.683105   -812.669205   -812.266594
   11 Atom     -501.322954   -501.101412   -500.672172
   12 Atom     -501.268515   -500.811650   -500.748079
   13 Atom     -500.882487   -500.180097   -500.171582
   14 Atom       -2.145404     -1.695315     -1.676274
   15 Atom       -2.147178     -1.687150     -1.661581
   16 Atom       -2.147205     -1.687171     -1.661586
   17 Atom       -2.145404     -1.695319     -1.676278
   18 Atom       -2.122672     -1.668662     -1.645002
   19 Atom       -2.121882     -1.678257     -1.646698
   20 Atom       -2.121688     -1.678132     -1.646659
   21 Atom       -2.122606     -1.668589     -1.644975
   22 Atom       -2.121590     -1.690544     -1.660440
   23 Atom       -2.121523     -1.690423     -1.660580
   24 Atom       -2.108569     -1.680065     -1.656919
 -----------------------------------------------------
 -----------------------------------------------------
    Center         ---- Electric Field Gradient ----
                       ( tensor representation )
                   3XX-RR        3YY-RR        3ZZ-RR
 -----------------------------------------------------
    1 Atom        1.186132     -0.363737     -0.822395
    2 Atom        0.198164      0.121620     -0.319785
    3 Atom        0.194427      0.066315     -0.260742
    4 Atom        0.020478      0.204725     -0.225203
    5 Atom        0.194590      0.066346     -0.260937
    6 Atom        0.198569      0.121424     -0.319993
    7 Atom        0.241589      0.182848     -0.424437
    8 Atom        0.139988      0.137678     -0.277667
    9 Atom        0.276313     -0.015194     -0.261119
   10 Atom       -0.142798     -0.096206      0.239004
   11 Atom        0.276179     -0.009476     -0.266704
   12 Atom        0.140098      0.138502     -0.278600
   13 Atom       -0.470985      0.239169      0.231816
   14 Atom        0.017350     -0.147617      0.130267
   15 Atom        0.044844     -0.176672      0.131827
   16 Atom        0.045745     -0.177123      0.131378
   17 Atom        0.016384     -0.147053      0.130668
   18 Atom        0.047440     -0.177485      0.130045
   19 Atom        0.000218     -0.138349      0.138131
   20 Atom        0.000112     -0.139336      0.139224
   21 Atom        0.047534     -0.177950      0.130416
   22 Atom        0.087108     -0.039141     -0.047967
   23 Atom        0.086985     -0.227967      0.140983
   24 Atom        0.096293      0.126538     -0.222830
 -----------------------------------------------------
 -----------------------------------------------------
    Center         ---- Electric Field Gradient ----
                       ( tensor representation )
                   ----       Eigenvalues       ----
 -----------------------------------------------------
    1 Atom       -0.868079     -0.318059      1.186137
    2 Atom       -0.369328      0.100443      0.268885
    3 Atom       -0.309622      0.114506      0.195116
    4 Atom       -0.264089      0.020478      0.243611
    5 Atom       -0.309814      0.114592      0.195222
    6 Atom       -0.369352      0.100473      0.268879
    7 Atom       -0.482897      0.241302      0.241595
    8 Atom       -0.325589      0.130959      0.194630
    9 Atom       -0.290928     -0.069331      0.360259
   10 Atom       -0.143470     -0.129570      0.273040
   11 Atom       -0.290775     -0.069232      0.360007
   12 Atom       -0.325767      0.131098      0.194669
   13 Atom       -0.471098      0.231292      0.239806
   14 Atom       -0.306407      0.143683      0.162724
   15 Atom       -0.315208      0.144820      0.170389
   16 Atom       -0.315218      0.144817      0.170401
   17 Atom       -0.306403      0.143681      0.162722
   18 Atom       -0.310560      0.143450      0.167110
   19 Atom       -0.306270      0.137356      0.168914
   20 Atom       -0.306195      0.137361      0.168834
   21 Atom       -0.310550      0.143468      0.167082
   22 Atom       -0.297398      0.133647      0.163751
   23 Atom       -0.297348      0.133753      0.163595
   24 Atom       -0.293385      0.135119      0.158265
 -----------------------------------------------------

 Test job not archived.
 1|1|UNPC-NP-ALMACH|FOpt|RB3LYP|6-311++G(d,p)|C11H11N2(1+)|HERA|04-Aug-
 2018|0||# RB3LYP/6-311++G** Opt Test prop=EFG||C11N2H11||1,1|N,-3.4886
 583413,-2.0401693917,0.4297877646|C,-2.2757195272,-2.5716439291,0.5976
 058638|C,-1.0959778665,-1.8374353488,0.5042755949|C,-1.175994737,-0.46
 39741071,0.2388168475|C,-2.4494285551,0.0960617912,0.0717831131|C,-3.5
 640386421,-0.7334265671,0.168049941|C,0.0390469776,0.3637599216,0.1385
 597164|C,1.2403032698,-0.1497612913,-0.3834323577|C,2.3610469782,0.644
 5013942,-0.4709110839|N,2.3392680557,1.9341275087,-0.0586022398|C,1.20
 05293381,2.4601654601,0.4516199665|C,0.053499048,1.7068078181,0.557299
 1602|C,3.5727318921,2.7546634962,-0.1204234802|H,-2.2421150239,-3.6337
 516255,0.818727983|H,-0.1458178281,-2.3292925936,0.674856133|H,-2.5828
 444816,1.144499811,-0.1665130666|H,-4.5607577032,-0.327741355,0.026387
 6395|H,1.2986080846,-1.1654007013,-0.7508109168|H,3.2970129578,0.28478
 54597,-0.876690914|H,1.2491771795,3.4917916542,0.7733849512|H,-0.82588
 10214,2.1648218487,0.989540268|H,4.1844587548,2.4148455236,-0.95329187
 04|H,3.3002014467,3.7962784129,-0.2759370876|H,4.1256677445,2.64986781
 03,0.8138610741||Version=EM64W-G09RevD.01|State=1-A|HF=-535.1976288|RM
 SD=7.253e-009|RMSF=2.376e-006|Dipole=3.3508868,2.2750082,-0.2600826|Qu
 adrupole=10.7106748,4.257177,-14.9678518,8.413648,-2.8491037,0.6371144
 |PG=C01 [X(C11H11N2)]||@


 IT WAS A GAME, A VERY INTERESTING GAME ONE COULD
 PLAY.  WHENEVER ONE SOLVED ONE OF THE LITTLE PROBLEMS,
 ONE COULD WRITE A PAPER ABOUT IT.  IT WAS VERY EASY IN
 THOSE DAYS FOR ANY SECOND-RATE PHYSICIST TO DO
 FIRST-RATE WORK.  THERE HAS NOT BEEN SUCH A GLORIOUS
 TIME SINCE.  IT IS VERY DIFFICULT NOW FOR A FIRST-RATE
 PHYSICIST TO DO SECOND-RATE WORK.
     P.A.M. DIRAC, ON THE EARLY DAYS OF QUANTUM MECHANICS
                   DIRECTIONS IN PHYSICS, 1978, P. 7
 Job cpu time:       0 days  1 hours  3 minutes 57.0 seconds.
 File lengths (MBytes):  RWF=     70 Int=      0 D2E=      0 Chk=     12 Scr=      1
 Normal termination of Gaussian 09 at Sat Aug 04 07:27:53 2018.
