 Entering Link 1 = C:\G09W\l1.exe PID=     54768.
  
 Copyright (c) 1988,1990,1992,1993,1995,1998,2003,2009,2013,
            Gaussian, Inc.  All Rights Reserved.
  
 This is part of the Gaussian(R) 09 program.  It is based on
 the Gaussian(R) 03 system (copyright 2003, Gaussian, Inc.),
 the Gaussian(R) 98 system (copyright 1998, Gaussian, Inc.),
 the Gaussian(R) 94 system (copyright 1995, Gaussian, Inc.),
 the Gaussian 92(TM) system (copyright 1992, Gaussian, Inc.),
 the Gaussian 90(TM) system (copyright 1990, Gaussian, Inc.),
 the Gaussian 88(TM) system (copyright 1988, Gaussian, Inc.),
 the Gaussian 86(TM) system (copyright 1986, Carnegie Mellon
 University), and the Gaussian 82(TM) system (copyright 1983,
 Carnegie Mellon University). Gaussian is a federally registered
 trademark of Gaussian, Inc.
  
 This software contains proprietary and confidential information,
 including trade secrets, belonging to Gaussian, Inc.
  
 This software is provided under written license and may be
 used, copied, transmitted, or stored only in accord with that
 written license.
  
 The following legend is applicable only to US Government
 contracts under FAR:
  
                    RESTRICTED RIGHTS LEGEND
  
 Use, reproduction and disclosure by the US Government is
 subject to restrictions as set forth in subparagraphs (a)
 and (c) of the Commercial Computer Software - Restricted
 Rights clause in FAR 52.227-19.
  
 Gaussian, Inc.
 340 Quinnipiac St., Bldg. 40, Wallingford CT 06492
  
  
 ---------------------------------------------------------------
 Warning -- This program may not be used in any manner that
 competes with the business of Gaussian, Inc. or will provide
 assistance to any competitor of Gaussian, Inc.  The licensee
 of this program is prohibited from giving any competitor of
 Gaussian, Inc. access to this program.  By using this program,
 the user acknowledges that Gaussian, Inc. is engaged in the
 business of creating and licensing software in the field of
 computational chemistry and represents and warrants to the
 licensee that it is not a competitor of Gaussian, Inc. and that
 it will not use this program in any manner prohibited above.
 ---------------------------------------------------------------
  

 Cite this work as:
 Gaussian 09, Revision D.01,
 M. J. Frisch, G. W. Trucks, H. B. Schlegel, G. E. Scuseria, 
 M. A. Robb, J. R. Cheeseman, G. Scalmani, V. Barone, B. Mennucci, 
 G. A. Petersson, H. Nakatsuji, M. Caricato, X. Li, H. P. Hratchian, 
 A. F. Izmaylov, J. Bloino, G. Zheng, J. L. Sonnenberg, M. Hada, 
 M. Ehara, K. Toyota, R. Fukuda, J. Hasegawa, M. Ishida, T. Nakajima, 
 Y. Honda, O. Kitao, H. Nakai, T. Vreven, J. A. Montgomery, Jr., 
 J. E. Peralta, F. Ogliaro, M. Bearpark, J. J. Heyd, E. Brothers, 
 K. N. Kudin, V. N. Staroverov, T. Keith, R. Kobayashi, J. Normand, 
 K. Raghavachari, A. Rendell, J. C. Burant, S. S. Iyengar, J. Tomasi, 
 M. Cossi, N. Rega, J. M. Millam, M. Klene, J. E. Knox, J. B. Cross, 
 V. Bakken, C. Adamo, J. Jaramillo, R. Gomperts, R. E. Stratmann, 
 O. Yazyev, A. J. Austin, R. Cammi, C. Pomelli, J. W. Ochterski, 
 R. L. Martin, K. Morokuma, V. G. Zakrzewski, G. A. Voth, 
 P. Salvador, J. J. Dannenberg, S. Dapprich, A. D. Daniels, 
 O. Farkas, J. B. Foresman, J. V. Ortiz, J. Cioslowski, 
 and D. J. Fox, Gaussian, Inc., Wallingford CT, 2013.
 
 ******************************************
 Gaussian 09:  EM64W-G09RevD.01 13-Apr-2013
                15-Aug-2018 
 ******************************************
 %Chk=Anth_267.chk
 %Mem=64GB
 %NProcShared=20
 Will use up to   20 processors via shared memory.
 -------------------------------------
 # RB3LYP/6-311++G** Opt Test prop=EFG
 -------------------------------------
 1/14=-1,18=20,19=15,26=3,38=1/1,3;
 2/9=110,12=2,17=6,18=5,40=1/2;
 3/5=4,6=6,7=1111,11=2,16=1,25=1,30=1,71=1,74=-5,116=1/1,2,3;
 4//1;
 5/5=2,38=5/2;
 6/7=2,8=2,9=2,10=2,14=1,28=1/1,2;
 7//1,2,3,16;
 1/14=-1,18=20,19=15,26=3/3(2);
 2/9=110/2;
 99//99;
 2/9=110/2;
 3/5=4,6=6,7=1111,11=2,16=1,25=1,30=1,71=1,74=-5,116=1/1,2,3;
 4/5=5,16=3,69=1/1;
 5/5=2,38=5/2;
 7//1,2,3,16;
 1/14=-1,18=20,19=15,26=3/3(-5);
 2/9=110/2;
 6/7=2,8=2,9=2,10=2,14=1,19=2,28=1/1,2;
 99/9=1/99;
 --------
 C13N3H17
 --------
 Symbolic Z-matrix:
 Charge =  2 Multiplicity = 1
 N                    -5.37778  -1.94914   1.07859 
 C                    -4.27513  -2.50381   0.81026 
 C                    -3.11139  -1.84601   0.67493 
 C                    -3.04041  -0.50416   0.82151 
 C                    -4.23815   0.05327   1.10773 
 C                    -5.34857  -0.69456   1.22248 
 C                    -1.88905   0.20771   0.69455 
 C                    -0.69423  -0.35343   0.40639 
 C                     0.428     0.37575   0.28614 
 N                     0.47961   1.67099   0.43199 
 C                    -0.66957   2.22287   0.71106 
 C                    -1.82365   1.54878   0.8436 
 C                     1.75746   2.51072   0.29509 
 C                     3.09411   1.82667  -0.07457 
 C                     4.25778   2.83608  -0.17436 
 N                     5.53194   2.11113  -0.53659 
 H                    -4.30993  -3.60033   0.68622 
 H                    -2.24471  -2.48061   0.44049 
 H                    -4.38719   1.13141   1.26314 
 H                    -6.31654  -0.218     1.45663 
 H                    -0.55847  -1.4337    0.25147 
 H                     1.36869  -0.14629   0.04942 
 H                    -0.6697    3.31874   0.84285 
 H                    -2.69671   2.17395   1.08031 
 H                     1.56      3.29477  -0.47568 
 H                     1.91019   3.04441   1.26438 
 H                     3.34696   1.06234   0.69855 
 H                     2.98467   1.3046   -1.05507 
 H                     4.04828   3.60033  -0.95766 
 H                     4.40919   3.35754   0.79862 
 H                     6.31654   2.79814  -0.60278 
 H                     5.74883   1.40187   0.19958 
 H                     5.40835   1.63123  -1.45663 
 

 GradGradGradGradGradGradGradGradGradGradGradGradGradGradGradGradGradGrad
 Berny optimization.
 Initialization pass.
                           ----------------------------
                           !    Initial Parameters    !
                           ! (Angstroms and Degrees)  !
 --------------------------                            --------------------------
 ! Name  Definition              Value          Derivative Info.                !
 --------------------------------------------------------------------------------
 ! R1    R(1,2)                  1.2631         estimate D2E/DX2                !
 ! R2    R(1,6)                  1.2631         estimate D2E/DX2                !
 ! R3    R(2,3)                  1.3436         estimate D2E/DX2                !
 ! R4    R(2,17)                 1.1041         estimate D2E/DX2                !
 ! R5    R(3,4)                  1.3517         estimate D2E/DX2                !
 ! R6    R(3,18)                 1.0995         estimate D2E/DX2                !
 ! R7    R(4,5)                  1.3518         estimate D2E/DX2                !
 ! R8    R(4,7)                  1.3596         estimate D2E/DX2                !
 ! R9    R(5,6)                  1.3437         estimate D2E/DX2                !
 ! R10   R(5,19)                 1.0994         estimate D2E/DX2                !
 ! R11   R(6,20)                 1.104          estimate D2E/DX2                !
 ! R12   R(7,8)                  1.3511         estimate D2E/DX2                !
 ! R13   R(7,12)                 1.3509         estimate D2E/DX2                !
 ! R14   R(8,9)                  1.3437         estimate D2E/DX2                !
 ! R15   R(8,21)                 1.0997         estimate D2E/DX2                !
 ! R16   R(9,10)                 1.3044         estimate D2E/DX2                !
 ! R17   R(9,22)                 1.1016         estimate D2E/DX2                !
 ! R18   R(10,11)                1.305          estimate D2E/DX2                !
 ! R19   R(10,13)                1.5352         estimate D2E/DX2                !
 ! R20   R(11,12)                1.3431         estimate D2E/DX2                !
 ! R21   R(11,23)                1.1038         estimate D2E/DX2                !
 ! R22   R(12,24)                1.0996         estimate D2E/DX2                !
 ! R23   R(13,14)                1.5464         estimate D2E/DX2                !
 ! R24   R(13,25)                1.1171         estimate D2E/DX2                !
 ! R25   R(13,26)                1.117          estimate D2E/DX2                !
 ! R26   R(14,15)                1.5437         estimate D2E/DX2                !
 ! R27   R(14,27)                1.1162         estimate D2E/DX2                !
 ! R28   R(14,28)                1.1162         estimate D2E/DX2                !
 ! R29   R(15,16)                1.5101         estimate D2E/DX2                !
 ! R30   R(15,29)                1.1142         estimate D2E/DX2                !
 ! R31   R(15,30)                1.1142         estimate D2E/DX2                !
 ! R32   R(16,31)                1.045          estimate D2E/DX2                !
 ! R33   R(16,32)                1.045          estimate D2E/DX2                !
 ! R34   R(16,33)                1.045          estimate D2E/DX2                !
 ! A1    A(2,1,6)              116.1141         estimate D2E/DX2                !
 ! A2    A(1,2,3)              124.2282         estimate D2E/DX2                !
 ! A3    A(1,2,17)             115.6247         estimate D2E/DX2                !
 ! A4    A(3,2,17)             120.1471         estimate D2E/DX2                !
 ! A5    A(2,3,4)              121.3709         estimate D2E/DX2                !
 ! A6    A(2,3,18)             114.9384         estimate D2E/DX2                !
 ! A7    A(4,3,18)             123.6908         estimate D2E/DX2                !
 ! A8    A(3,4,5)              112.6934         estimate D2E/DX2                !
 ! A9    A(3,4,7)              123.6502         estimate D2E/DX2                !
 ! A10   A(5,4,7)              123.6564         estimate D2E/DX2                !
 ! A11   A(4,5,6)              121.3876         estimate D2E/DX2                !
 ! A12   A(4,5,19)             123.6717         estimate D2E/DX2                !
 ! A13   A(6,5,19)             114.9407         estimate D2E/DX2                !
 ! A14   A(1,6,5)              124.2059         estimate D2E/DX2                !
 ! A15   A(1,6,20)             115.6331         estimate D2E/DX2                !
 ! A16   A(5,6,20)             120.161          estimate D2E/DX2                !
 ! A17   A(4,7,8)              123.4588         estimate D2E/DX2                !
 ! A18   A(4,7,12)             123.3992         estimate D2E/DX2                !
 ! A19   A(8,7,12)             113.142          estimate D2E/DX2                !
 ! A20   A(7,8,9)              122.1586         estimate D2E/DX2                !
 ! A21   A(7,8,21)             123.1734         estimate D2E/DX2                !
 ! A22   A(9,8,21)             114.668          estimate D2E/DX2                !
 ! A23   A(8,9,10)             124.1856         estimate D2E/DX2                !
 ! A24   A(8,9,22)             118.3758         estimate D2E/DX2                !
 ! A25   A(10,9,22)            117.4386         estimate D2E/DX2                !
 ! A26   A(9,10,11)            114.1405         estimate D2E/DX2                !
 ! A27   A(9,10,13)            124.4781         estimate D2E/DX2                !
 ! A28   A(11,10,13)           121.3814         estimate D2E/DX2                !
 ! A29   A(10,11,12)           124.4385         estimate D2E/DX2                !
 ! A30   A(10,11,23)           116.4553         estimate D2E/DX2                !
 ! A31   A(12,11,23)           119.1062         estimate D2E/DX2                !
 ! A32   A(7,12,11)            121.9348         estimate D2E/DX2                !
 ! A33   A(7,12,24)            123.3478         estimate D2E/DX2                !
 ! A34   A(11,12,24)           114.7174         estimate D2E/DX2                !
 ! A35   A(10,13,14)           119.9237         estimate D2E/DX2                !
 ! A36   A(10,13,25)           107.3568         estimate D2E/DX2                !
 ! A37   A(10,13,26)           107.324          estimate D2E/DX2                !
 ! A38   A(14,13,25)           107.3583         estimate D2E/DX2                !
 ! A39   A(14,13,26)           107.4942         estimate D2E/DX2                !
 ! A40   A(25,13,26)           106.7124         estimate D2E/DX2                !
 ! A41   A(13,14,15)           112.1966         estimate D2E/DX2                !
 ! A42   A(13,14,27)           109.4605         estimate D2E/DX2                !
 ! A43   A(13,14,28)           109.3984         estimate D2E/DX2                !
 ! A44   A(15,14,27)           108.771          estimate D2E/DX2                !
 ! A45   A(15,14,28)           108.8421         estimate D2E/DX2                !
 ! A46   A(27,14,28)           108.0815         estimate D2E/DX2                !
 ! A47   A(14,15,16)           109.7334         estimate D2E/DX2                !
 ! A48   A(14,15,29)           110.6229         estimate D2E/DX2                !
 ! A49   A(14,15,30)           110.61           estimate D2E/DX2                !
 ! A50   A(16,15,29)           108.6213         estimate D2E/DX2                !
 ! A51   A(16,15,30)           108.6316         estimate D2E/DX2                !
 ! A52   A(29,15,30)           108.5672         estimate D2E/DX2                !
 ! A53   A(15,16,31)           109.4574         estimate D2E/DX2                !
 ! A54   A(15,16,32)           109.3891         estimate D2E/DX2                !
 ! A55   A(15,16,33)           109.3822         estimate D2E/DX2                !
 ! A56   A(31,16,32)           109.5728         estimate D2E/DX2                !
 ! A57   A(31,16,33)           109.5692         estimate D2E/DX2                !
 ! A58   A(32,16,33)           109.4563         estimate D2E/DX2                !
 ! D1    D(6,1,2,3)             -0.0019         estimate D2E/DX2                !
 ! D2    D(6,1,2,17)           179.9993         estimate D2E/DX2                !
 ! D3    D(2,1,6,5)             -0.0028         estimate D2E/DX2                !
 ! D4    D(2,1,6,20)           179.9902         estimate D2E/DX2                !
 ! D5    D(1,2,3,4)              0.0007         estimate D2E/DX2                !
 ! D6    D(1,2,3,18)           179.9946         estimate D2E/DX2                !
 ! D7    D(17,2,3,4)           179.9993         estimate D2E/DX2                !
 ! D8    D(17,2,3,18)           -0.0067         estimate D2E/DX2                !
 ! D9    D(2,3,4,5)              0.0048         estimate D2E/DX2                !
 ! D10   D(2,3,4,7)           -179.9841         estimate D2E/DX2                !
 ! D11   D(18,3,4,5)          -179.9886         estimate D2E/DX2                !
 ! D12   D(18,3,4,7)             0.0225         estimate D2E/DX2                !
 ! D13   D(3,4,5,6)             -0.0092         estimate D2E/DX2                !
 ! D14   D(3,4,5,19)          -179.9873         estimate D2E/DX2                !
 ! D15   D(7,4,5,6)            179.9798         estimate D2E/DX2                !
 ! D16   D(7,4,5,19)             0.0016         estimate D2E/DX2                !
 ! D17   D(3,4,7,8)              0.0882         estimate D2E/DX2                !
 ! D18   D(3,4,7,12)          -179.9236         estimate D2E/DX2                !
 ! D19   D(5,4,7,8)           -179.8996         estimate D2E/DX2                !
 ! D20   D(5,4,7,12)             0.0887         estimate D2E/DX2                !
 ! D21   D(4,5,6,1)              0.0089         estimate D2E/DX2                !
 ! D22   D(4,5,6,20)          -179.9838         estimate D2E/DX2                !
 ! D23   D(19,5,6,1)           179.9888         estimate D2E/DX2                !
 ! D24   D(19,5,6,20)           -0.0038         estimate D2E/DX2                !
 ! D25   D(4,7,8,9)            179.9622         estimate D2E/DX2                !
 ! D26   D(4,7,8,21)            -0.0079         estimate D2E/DX2                !
 ! D27   D(12,7,8,9)            -0.0271         estimate D2E/DX2                !
 ! D28   D(12,7,8,21)         -179.9972         estimate D2E/DX2                !
 ! D29   D(4,7,12,11)         -179.9734         estimate D2E/DX2                !
 ! D30   D(4,7,12,24)            0.029          estimate D2E/DX2                !
 ! D31   D(8,7,12,11)            0.0159         estimate D2E/DX2                !
 ! D32   D(8,7,12,24)         -179.9817         estimate D2E/DX2                !
 ! D33   D(7,8,9,10)             0.0177         estimate D2E/DX2                !
 ! D34   D(7,8,9,22)          -179.986          estimate D2E/DX2                !
 ! D35   D(21,8,9,10)          179.9901         estimate D2E/DX2                !
 ! D36   D(21,8,9,22)           -0.0135         estimate D2E/DX2                !
 ! D37   D(8,9,10,11)            0.0055         estimate D2E/DX2                !
 ! D38   D(8,9,10,13)         -179.9515         estimate D2E/DX2                !
 ! D39   D(22,9,10,11)        -179.9909         estimate D2E/DX2                !
 ! D40   D(22,9,10,13)           0.0522         estimate D2E/DX2                !
 ! D41   D(9,10,11,12)          -0.0172         estimate D2E/DX2                !
 ! D42   D(9,10,11,23)         179.9846         estimate D2E/DX2                !
 ! D43   D(13,10,11,12)        179.9413         estimate D2E/DX2                !
 ! D44   D(13,10,11,23)         -0.057          estimate D2E/DX2                !
 ! D45   D(9,10,13,14)           1.6252         estimate D2E/DX2                !
 ! D46   D(9,10,13,25)         124.3468         estimate D2E/DX2                !
 ! D47   D(9,10,13,26)        -121.2537         estimate D2E/DX2                !
 ! D48   D(11,10,13,14)       -178.3288         estimate D2E/DX2                !
 ! D49   D(11,10,13,25)        -55.6072         estimate D2E/DX2                !
 ! D50   D(11,10,13,26)         58.7923         estimate D2E/DX2                !
 ! D51   D(10,11,12,7)           0.0063         estimate D2E/DX2                !
 ! D52   D(10,11,12,24)       -179.9959         estimate D2E/DX2                !
 ! D53   D(23,11,12,7)        -179.9955         estimate D2E/DX2                !
 ! D54   D(23,11,12,24)          0.0023         estimate D2E/DX2                !
 ! D55   D(10,13,14,15)        179.5879         estimate D2E/DX2                !
 ! D56   D(10,13,14,27)        -59.5635         estimate D2E/DX2                !
 ! D57   D(10,13,14,28)         58.6921         estimate D2E/DX2                !
 ! D58   D(25,13,14,15)         56.8671         estimate D2E/DX2                !
 ! D59   D(25,13,14,27)        177.7157         estimate D2E/DX2                !
 ! D60   D(25,13,14,28)        -64.0287         estimate D2E/DX2                !
 ! D61   D(26,13,14,15)        -57.6159         estimate D2E/DX2                !
 ! D62   D(26,13,14,27)         63.2327         estimate D2E/DX2                !
 ! D63   D(26,13,14,28)       -178.5117         estimate D2E/DX2                !
 ! D64   D(13,14,15,16)        179.991          estimate D2E/DX2                !
 ! D65   D(13,14,15,29)        -60.1774         estimate D2E/DX2                !
 ! D66   D(13,14,15,30)         60.1547         estimate D2E/DX2                !
 ! D67   D(27,14,15,16)         58.7455         estimate D2E/DX2                !
 ! D68   D(27,14,15,29)        178.5771         estimate D2E/DX2                !
 ! D69   D(27,14,15,30)        -61.0909         estimate D2E/DX2                !
 ! D70   D(28,14,15,16)        -58.7929         estimate D2E/DX2                !
 ! D71   D(28,14,15,29)         61.0387         estimate D2E/DX2                !
 ! D72   D(28,14,15,30)       -178.6292         estimate D2E/DX2                !
 ! D73   D(14,15,16,31)       -179.9881         estimate D2E/DX2                !
 ! D74   D(14,15,16,32)        -59.9224         estimate D2E/DX2                !
 ! D75   D(14,15,16,33)         59.9549         estimate D2E/DX2                !
 ! D76   D(29,15,16,31)         58.9658         estimate D2E/DX2                !
 ! D77   D(29,15,16,32)        179.0315         estimate D2E/DX2                !
 ! D78   D(29,15,16,33)        -61.0913         estimate D2E/DX2                !
 ! D79   D(30,15,16,31)        -58.9513         estimate D2E/DX2                !
 ! D80   D(30,15,16,32)         61.1143         estimate D2E/DX2                !
 ! D81   D(30,15,16,33)       -179.0084         estimate D2E/DX2                !
 --------------------------------------------------------------------------------
 Trust Radius=3.00D-01 FncErr=1.00D-07 GrdErr=1.00D-06
 Number of steps in this run=    183 maximum allowed number of steps=    198.
 GradGradGradGradGradGradGradGradGradGradGradGradGradGradGradGradGradGrad

                          Input orientation:                          
 ---------------------------------------------------------------------
 Center     Atomic      Atomic             Coordinates (Angstroms)
 Number     Number       Type             X           Y           Z
 ---------------------------------------------------------------------
      1          7           0       -5.377784   -1.949136    1.078594
      2          6           0       -4.275127   -2.503814    0.810263
      3          6           0       -3.111394   -1.846009    0.674928
      4          6           0       -3.040408   -0.504161    0.821505
      5          6           0       -4.238148    0.053268    1.107734
      6          6           0       -5.348571   -0.694562    1.222483
      7          6           0       -1.889048    0.207709    0.694550
      8          6           0       -0.694225   -0.353434    0.406393
      9          6           0        0.427995    0.375752    0.286135
     10          7           0        0.479609    1.670990    0.431989
     11          6           0       -0.669570    2.222871    0.711063
     12          6           0       -1.823648    1.548780    0.843601
     13          6           0        1.757462    2.510719    0.295086
     14          6           0        3.094112    1.826667   -0.074568
     15          6           0        4.257778    2.836081   -0.174362
     16          7           0        5.531940    2.111126   -0.536588
     17          1           0       -4.309932   -3.600333    0.686215
     18          1           0       -2.244713   -2.480606    0.440494
     19          1           0       -4.387187    1.131410    1.263136
     20          1           0       -6.316541   -0.218004    1.456630
     21          1           0       -0.558473   -1.433695    0.251471
     22          1           0        1.368690   -0.146290    0.049417
     23          1           0       -0.669695    3.318735    0.842850
     24          1           0       -2.696708    2.173952    1.080309
     25          1           0        1.560001    3.294773   -0.475681
     26          1           0        1.910190    3.044412    1.264378
     27          1           0        3.346960    1.062337    0.698546
     28          1           0        2.984670    1.304603   -1.055066
     29          1           0        4.048276    3.600333   -0.957657
     30          1           0        4.409191    3.357540    0.798616
     31          1           0        6.316541    2.798140   -0.602776
     32          1           0        5.748828    1.401869    0.199582
     33          1           0        5.408353    1.631234   -1.456630
 ---------------------------------------------------------------------
                    Distance matrix (angstroms):
                    1          2          3          4          5
     1  N    0.000000
     2  C    1.263140   0.000000
     3  C    2.304367   1.343614   0.000000
     4  C    2.759959   2.350164   1.351695   0.000000
     5  C    2.304179   2.574592   2.250366   1.351753   0.000000
     6  C    1.263136   2.143735   2.574997   2.350458   1.343673
     7  C    4.119557   3.613740   2.390036   1.359598   2.390156
     8  C    4.993380   4.196439   2.853524   2.387386   3.635475
     9  C    6.303980   5.539492   4.196982   3.618105   4.748885
    10  N    6.916102   6.338738   5.032256   4.156143   5.032980
    11  C    6.301428   5.945707   4.745481   3.615214   4.195149
    12  C    4.992246   4.736494   3.634740   2.386537   2.852391
    13  C    8.450794   7.861493   6.544549   5.690885   6.530452
    14  C    9.346630   8.593118   7.249731   6.623295   7.635759
    15  C   10.831078  10.114071   8.771998   8.087799   9.031532
    16  N   11.752303  10.922007   9.583001   9.064728  10.118952
    17  H    2.005173   1.104062   2.124682   3.349071   3.678537
    18  H    3.241260   2.063940   1.099458   2.164402   3.292341
    19  H    3.241157   3.665038   3.292212   2.164242   1.099433
    20  H    2.005242   3.132106   3.678916   3.349376   2.124861
    21  H    4.916866   3.907802   2.620444   2.710899   4.060080
    22  H    7.058638   6.163560   4.832335   4.490472   5.709334
    23  H    7.069098   6.848524   5.715302   4.498363   4.844305
    24  H    4.918132   4.944272   4.061574   2.712452   2.621849
    25  H    8.834433   8.326223   7.040843   6.105600   6.828842
    26  H    8.836549   8.321489   7.034200   6.107121   6.839118
    27  H    9.237671   8.415826   7.083034   6.577804   7.662866
    28  H    9.223338   8.407624   7.076809   6.564656   7.642816
    29  H   11.126254  10.472115   9.142694   8.382227   9.247288
    30  H   11.136610  10.477260   9.146115   8.391054   9.262302
    31  H   12.732669  11.928572  10.587096  10.024284  11.039095
    32  H   11.653471  10.775294   9.448714   9.015010  10.118456
    33  H   11.644190  10.770664   9.445679   9.007296  10.105490
                    6          7          8          9         10
     6  C    0.000000
     7  C    3.614015   0.000000
     8  C    4.737648   1.351117   0.000000
     9  C    5.949036   2.358756   1.343708   0.000000
    10  N    6.339432   2.796545   2.340264   1.304446   0.000000
    11  C    5.537691   2.355478   2.594375   2.190219   1.305016
    12  C    4.195380   1.350913   2.255031   2.599357   2.342937
    13  C    7.850452   4.331335   3.771807   2.515084   1.535186
    14  C    8.906056   5.295701   4.397233   3.056704   2.667670
    15  C   10.329499   6.741425   5.918836   4.575206   3.999957
    16  N   11.373290   7.759495   6.762278   5.453316   5.163130
    17  H    3.132070   4.512420   4.867647   6.198167   7.126793
    18  H    3.665432   2.723615   2.632496   3.914840   4.965657
    19  H    2.063997   2.723456   4.071454   4.971069   4.966654
    20  H    1.104037   4.512726   5.721169   6.871053   7.127822
    21  H    4.943098   2.158925   1.099724   2.061169   3.278608
    22  H    6.840927   3.339816   2.103796   1.101576   2.058964
    23  H    6.175966   3.344742   3.698097   3.189985   2.050554
    24  H    3.909087   2.160379   3.294204   3.691613   3.280591
    25  H    8.156404   4.774447   4.378242   3.222186   2.151228
    26  H    8.165249   4.775542   4.366288   3.205559   2.150749
    27  H    8.886701   5.305298   4.291962   3.026853   2.943334
    28  H    8.867175   5.293152   4.291762   3.032849   2.936137
    29  H   10.559350   7.035020   6.323308   5.005135   4.288224
    30  H   10.574172   7.042732   6.322185   5.000362   4.291909
    31  H   12.312813   8.702016   7.752527   6.429082   6.034151
    32  H   11.339912   7.746493   6.681077   5.419564   5.281203
    33  H   11.326888   7.739901   6.682157   5.423784   5.278350
                   11         12         13         14         15
    11  C    0.000000
    12  C    1.343079   0.000000
    13  C    2.479189   3.748406   0.000000
    14  C    3.865164   5.010451   1.546352   0.000000
    15  C    5.043685   6.298979   2.564726   1.543695   0.000000
    16  N    6.326756   7.505054   3.885620   2.497476   1.510052
    17  H    6.867500   5.720117   8.620395   9.211460  10.750520
    18  H    4.967593   4.071332   6.399365   6.879022   8.421852
    19  H    3.913662   2.630958   6.371525   7.631688   8.927918
    20  H    6.196937   4.866561   8.601432   9.751186  11.126715
    21  H    3.687010   3.293394   4.574260   4.906897   6.450472
    22  H    3.194558   3.700677   2.696515   2.623931   4.158298
    23  H    1.103760   2.112901   2.616109   4.151405   5.054470
    24  H    2.061074   1.099593   4.535374   5.915061   7.097710
    25  H    2.743779   4.029650   1.117056   2.160954   2.753033
    26  H    2.763376   4.044195   1.116996   2.162718   2.761258
    27  H    4.180850   5.195465   2.187943   1.116171   2.176632
    28  H    4.161238   5.175373   2.187159   1.116201   2.177583
    29  H    5.190385   6.475561   2.829214   2.199129   1.114237
    30  H    5.204705   6.490140   2.828836   2.198967   1.114240
    31  H    7.131820   8.361554   4.655531   3.406877   2.103208
    32  H    6.490877   7.601233   4.143630   2.702430   2.102386
    33  H    6.479975   7.589447   4.143791   2.702592   2.102306
                   16         17         18         19         20
    16  N    0.000000
    17  H   11.444582   0.000000
    18  H    9.083778   2.362054   0.000000
    19  H   10.128570   4.767410   4.279439   0.000000
    20  H   12.238638   4.007514   4.767776   2.362364   0.000000
    21  H    7.090834   4.353937   1.993780   4.718292   6.007134
    22  H    4.772000   6.677026   4.319566   6.019614   7.813333
    23  H    6.466950   7.819806   6.022867   4.333679   6.691197
    24  H    8.386236   6.008342   4.720018   1.994502   4.355027
    25  H    4.145001   9.129546   6.976405   6.562977   8.838175
    26  H    4.151093   9.120133   6.961884   6.581530   8.852086
    27  H    2.720230   8.964856   6.624639   7.755035   9.777383
    28  H    2.721743   8.961120   6.626534   7.729705   9.753947
    29  H    2.143897  11.153992   8.861961   9.065569  11.306543
    30  H    2.144034  11.155615   8.859269   9.085576  11.325141
    31  H    1.044973  12.470921  10.111807  10.992243  13.150401
    32  H    1.045003  11.244443   8.889789  10.195249  12.238353
    33  H    1.045011  11.243049   8.892453  10.178387  12.222107
                   21         22         23         24         25
    21  H    0.000000
    22  H    2.326412   0.000000
    23  H    4.790375   4.097676   0.000000
    24  H    4.274826   4.793091   2.340021   0.000000
    25  H    5.232121   3.486150   2.590491   4.668717   0.000000
    26  H    5.212842   3.456867   2.628449   4.692024   1.792517
    27  H    4.656443   2.407426   4.609303   6.156895   3.091246
    28  H    4.664673   2.436466   4.584015   6.131366   2.515183
    29  H    6.930048   4.715036   5.057704   7.189067   2.552877
    30  H    6.923365   4.699231   5.079227   7.209302   3.121803
    31  H    8.118127   5.794502   7.153205   9.190269   4.784085
    32  H    6.915574   4.648113   6.729458   8.526363   4.646002
    33  H    6.922024   4.663330   6.714010   8.510148   4.305745
                   26         27         28         29         30
    26  H    0.000000
    27  H    2.512587   0.000000
    28  H    3.092129   1.806959   0.000000
    29  H    3.133353   3.110671   2.532019   0.000000
    30  H    2.561248   2.531068   3.111261   1.809338   0.000000
    31  H    4.791956   3.677616   3.679210   2.431970   2.432039
    32  H    4.308930   2.476533   3.037132   3.010701   2.445019
    33  H    4.651677   3.036078   2.478342   2.444613   3.010746
                   31         32         33
    31  H    0.000000
    32  H    1.707527   0.000000
    33  H    1.707496   1.706332   0.000000
 Stoichiometry    C13H17N3(2+)
 Framework group  C1[X(C13H17N3)]
 Deg. of freedom    93
 Full point group                 C1      NOp   1
 Largest Abelian subgroup         C1      NOp   1
 Largest concise Abelian subgroup C1      NOp   1
                         Standard orientation:                         
 ---------------------------------------------------------------------
 Center     Atomic      Atomic             Coordinates (Angstroms)
 Number     Number       Type             X           Y           Z
 ---------------------------------------------------------------------
      1          7           0        5.390627   -0.476735    0.013249
      2          6           0        4.565623   -1.433138   -0.000281
      3          6           0        3.230808   -1.279776   -0.007104
      4          6           0        2.663428   -0.052949    0.000273
      5          6           0        3.576417    0.943787    0.014581
      6          6           0        4.894930    0.685051    0.020464
      7          6           0        1.319970    0.155830   -0.005799
      8          6           0        0.410840   -0.843594   -0.018132
      9          6           0       -0.911898   -0.607185   -0.023138
     10          7           0       -1.443585    0.583971   -0.017094
     11          6           0       -0.573669    1.556690   -0.005624
     12          6           0        0.758305    1.384432    0.000124
     13          6           0       -2.953419    0.861773   -0.021678
     14          6           0       -3.954624   -0.316424    0.003750
     15          6           0       -5.421441    0.164657    0.005166
     16          7           0       -6.348782   -1.026843    0.030123
     17          1           0        5.007551   -2.444877   -0.006513
     18          1           0        2.656524   -2.217254   -0.019023
     19          1           0        3.313400    2.011266    0.022599
     20          1           0        5.623009    1.514904    0.032450
     21          1           0        0.686866   -1.908096   -0.024376
     22          1           0       -1.597745   -1.469152   -0.033032
     23          1           0       -0.982479    2.581938   -0.000443
     24          1           0        1.342362    2.316036    0.009877
     25          1           0       -3.176127    1.507509    0.862199
     26          1           0       -3.176500    1.472439   -0.929975
     27          1           0       -3.789824   -0.963821   -0.890429
     28          1           0       -3.776992   -0.934250    0.916243
     29          1           0       -5.627065    0.794369    0.901103
     30          1           0       -5.638098    0.765306   -0.907967
     31          1           0       -7.340135   -0.696411    0.030790
     32          1           0       -6.177273   -1.617694   -0.814574
     33          1           0       -6.166915   -1.589872    0.891500
 ---------------------------------------------------------------------
 Rotational constants (GHZ):      2.3610046      0.1731387      0.1619747
 Standard basis: 6-311++G(d,p) (5D, 7F)
 There are   487 symmetry adapted cartesian basis functions of A   symmetry.
 There are   471 symmetry adapted basis functions of A   symmetry.
   471 basis functions,   729 primitive gaussians,   487 cartesian basis functions
    57 alpha electrons       57 beta electrons
       nuclear repulsion energy      1016.4674199882 Hartrees.
 NAtoms=   33 NActive=   33 NUniq=   33 SFac= 1.00D+00 NAtFMM=   60 NAOKFM=F Big=F
 Integral buffers will be    131072 words long.
 Raffenetti 2 integral format.
 Two-electron integral symmetry is turned on.
 One-electron integrals computed using PRISM.
 NBasis=   471 RedAO= T EigKep=  1.11D-06  NBF=   471
 NBsUse=   467 1.00D-06 EigRej=  2.17D-07 NBFU=   467
 ExpMin= 3.60D-02 ExpMax= 6.29D+03 ExpMxC= 9.49D+02 IAcc=3 IRadAn=         5 AccDes= 0.00D+00
 Harris functional with IExCor=  402 and IRadAn=       5 diagonalized for initial guess.
 HarFok:  IExCor=  402 AccDes= 0.00D+00 IRadAn=         5 IDoV= 1 UseB2=F ITyADJ=14
 ICtDFT=  3500011 ScaDFX=  1.000000  1.000000  1.000000  1.000000
 FoFCou: FMM=F IPFlag=           0 FMFlag=      100000 FMFlg1=           0
         NFxFlg=           0 DoJE=T BraDBF=F KetDBF=T FulRan=T
         wScrn=  0.000000 ICntrl=     500 IOpCl=  0 I1Cent=   200000004 NGrid=           0
         NMat0=    1 NMatS0=      1 NMatT0=    0 NMatD0=    1 NMtDS0=    0 NMtDT0=    0
 Petite list used in FoFCou.
 Keep R1 ints in memory in canonical form, NReq=6236734075.
 Requested convergence on RMS density matrix=1.00D-08 within 128 cycles.
 Requested convergence on MAX density matrix=1.00D-06.
 Requested convergence on             energy=1.00D-06.
 No special actions if energy rises.
 SCF Done:  E(RB3LYP) =  -669.409742726     A.U. after   18 cycles
            NFock= 18  Conv=0.58D-08     -V/T= 2.0021

 **********************************************************************

            Population analysis using the SCF density.

 **********************************************************************

 Orbital symmetries:
       Occupied  (A) (A) (A) (A) (A) (A) (A) (A) (A) (A) (A) (A)
                 (A) (A) (A) (A) (A) (A) (A) (A) (A) (A) (A) (A)
                 (A) (A) (A) (A) (A) (A) (A) (A) (A) (A) (A) (A)
                 (A) (A) (A) (A) (A) (A) (A) (A) (A) (A) (A) (A)
                 (A) (A) (A) (A) (A) (A) (A) (A) (A)
       Virtual   (A) (A) (A) (A) (A) (A) (A) (A) (A) (A) (A) (A)
                 (A) (A) (A) (A) (A) (A) (A) (A) (A) (A) (A) (A)
                 (A) (A) (A) (A) (A) (A) (A) (A) (A) (A) (A) (A)
                 (A) (A) (A) (A) (A) (A) (A) (A) (A) (A) (A) (A)
                 (A) (A) (A) (A) (A) (A) (A) (A) (A) (A) (A) (A)
                 (A) (A) (A) (A) (A) (A) (A) (A) (A) (A) (A) (A)
                 (A) (A) (A) (A) (A) (A) (A) (A) (A) (A) (A) (A)
                 (A) (A) (A) (A) (A) (A) (A) (A) (A) (A) (A) (A)
                 (A) (A) (A) (A) (A) (A) (A) (A) (A) (A) (A) (A)
                 (A) (A) (A) (A) (A) (A) (A) (A) (A) (A) (A) (A)
                 (A) (A) (A) (A) (A) (A) (A) (A) (A) (A) (A) (A)
                 (A) (A) (A) (A) (A) (A) (A) (A) (A) (A) (A) (A)
                 (A) (A) (A) (A) (A) (A) (A) (A) (A) (A) (A) (A)
                 (A) (A) (A) (A) (A) (A) (A) (A) (A) (A) (A) (A)
                 (A) (A) (A) (A) (A) (A) (A) (A) (A) (A) (A) (A)
                 (A) (A) (A) (A) (A) (A) (A) (A) (A) (A) (A) (A)
                 (A) (A) (A) (A) (A) (A) (A) (A) (A) (A) (A) (A)
                 (A) (A) (A) (A) (A) (A) (A) (A) (A) (A) (A) (A)
                 (A) (A) (A) (A) (A) (A) (A) (A) (A) (A) (A) (A)
                 (A) (A) (A) (A) (A) (A) (A) (A) (A) (A) (A) (A)
                 (A) (A) (A) (A) (A) (A) (A) (A) (A) (A) (A) (A)
                 (A) (A) (A) (A) (A) (A) (A) (A) (A) (A) (A) (A)
                 (A) (A) (A) (A) (A) (A) (A) (A) (A) (A) (A) (A)
                 (A) (A) (A) (A) (A) (A) (A) (A) (A) (A) (A) (A)
                 (A) (A) (A) (A) (A) (A) (A) (A) (A) (A) (A) (A)
                 (A) (A) (A) (A) (A) (A) (A) (A) (A) (A) (A) (A)
                 (A) (A) (A) (A) (A) (A) (A) (A) (A) (A) (A) (A)
                 (A) (A) (A) (A) (A) (A) (A) (A) (A) (A) (A) (A)
                 (A) (A) (A) (A) (A) (A) (A) (A) (A) (A) (A) (A)
                 (A) (A) (A) (A) (A) (A) (A) (A) (A) (A) (A) (A)
                 (A) (A) (A) (A) (A) (A) (A) (A) (A) (A) (A) (A)
                 (A) (A) (A) (A) (A) (A) (A) (A) (A) (A) (A) (A)
                 (A) (A) (A) (A) (A) (A) (A) (A) (A) (A) (A) (A)
                 (A) (A) (A) (A) (A) (A) (A) (A) (A) (A) (A) (A)
                 (A) (A)
 The electronic state is 1-A.
 Alpha  occ. eigenvalues --  -14.75391 -14.68286 -14.48685 -10.54680 -10.52575
 Alpha  occ. eigenvalues --  -10.49981 -10.49285 -10.48909 -10.44990 -10.43818
 Alpha  occ. eigenvalues --  -10.43721 -10.39548 -10.38206 -10.38170 -10.37639
 Alpha  occ. eigenvalues --  -10.37596  -1.31239  -1.31018  -1.18176  -1.13874
 Alpha  occ. eigenvalues --   -1.10235  -1.06218  -1.04826  -1.00625  -0.97253
 Alpha  occ. eigenvalues --   -0.94865  -0.93574  -0.91638  -0.89732  -0.87832
 Alpha  occ. eigenvalues --   -0.85238  -0.84646  -0.82684  -0.79319  -0.78846
 Alpha  occ. eigenvalues --   -0.78635  -0.76192  -0.74285  -0.73055  -0.71240
 Alpha  occ. eigenvalues --   -0.70353  -0.69258  -0.68757  -0.68129  -0.66940
 Alpha  occ. eigenvalues --   -0.65582  -0.65555  -0.63753  -0.63372  -0.63011
 Alpha  occ. eigenvalues --   -0.61131  -0.59025  -0.54782  -0.54725  -0.49667
 Alpha  occ. eigenvalues --   -0.46590  -0.44007
 Alpha virt. eigenvalues --   -0.32813  -0.30064  -0.28129  -0.25313  -0.24746
 Alpha virt. eigenvalues --   -0.24229  -0.23197  -0.21820  -0.21538  -0.19869
 Alpha virt. eigenvalues --   -0.19792  -0.19507  -0.19128  -0.18200  -0.18154
 Alpha virt. eigenvalues --   -0.17478  -0.16580  -0.16551  -0.15742  -0.14668
 Alpha virt. eigenvalues --   -0.14461  -0.14320  -0.13114  -0.12883  -0.12806
 Alpha virt. eigenvalues --   -0.12196  -0.11204  -0.10886  -0.10437  -0.10417
 Alpha virt. eigenvalues --   -0.10040  -0.09839  -0.09635  -0.09481  -0.09260
 Alpha virt. eigenvalues --   -0.08607  -0.08584  -0.08176  -0.07390  -0.07181
 Alpha virt. eigenvalues --   -0.07027  -0.06915  -0.06499  -0.06297  -0.05794
 Alpha virt. eigenvalues --   -0.05741  -0.05336  -0.05185  -0.05091  -0.04513
 Alpha virt. eigenvalues --   -0.03900  -0.03851  -0.03446  -0.03373  -0.02756
 Alpha virt. eigenvalues --   -0.02632  -0.02498  -0.02342  -0.01706  -0.00888
 Alpha virt. eigenvalues --   -0.00857  -0.00207   0.00247   0.00480   0.00600
 Alpha virt. eigenvalues --    0.00798   0.01251   0.01695   0.02065   0.02384
 Alpha virt. eigenvalues --    0.02584   0.02701   0.02942   0.03552   0.04022
 Alpha virt. eigenvalues --    0.04132   0.04783   0.04897   0.05488   0.06004
 Alpha virt. eigenvalues --    0.06116   0.06351   0.06713   0.06952   0.08224
 Alpha virt. eigenvalues --    0.08579   0.08998   0.09435   0.09833   0.10494
 Alpha virt. eigenvalues --    0.11157   0.11371   0.11448   0.11604   0.13070
 Alpha virt. eigenvalues --    0.13387   0.13666   0.14096   0.14474   0.15477
 Alpha virt. eigenvalues --    0.16281   0.16583   0.17130   0.17488   0.17886
 Alpha virt. eigenvalues --    0.18138   0.18392   0.19805   0.20337   0.20971
 Alpha virt. eigenvalues --    0.21317   0.22149   0.23032   0.23251   0.23606
 Alpha virt. eigenvalues --    0.23962   0.27301   0.28767   0.29954   0.30709
 Alpha virt. eigenvalues --    0.30953   0.31448   0.31536   0.33074   0.33431
 Alpha virt. eigenvalues --    0.34327   0.34364   0.34800   0.35454   0.35832
 Alpha virt. eigenvalues --    0.37049   0.37507   0.37598   0.37741   0.37851
 Alpha virt. eigenvalues --    0.40193   0.40261   0.40875   0.41059   0.41978
 Alpha virt. eigenvalues --    0.42506   0.42586   0.44071   0.44221   0.44777
 Alpha virt. eigenvalues --    0.45721   0.46500   0.47100   0.47502   0.47917
 Alpha virt. eigenvalues --    0.48350   0.48662   0.49032   0.49340   0.50079
 Alpha virt. eigenvalues --    0.50461   0.51617   0.52213   0.53050   0.54014
 Alpha virt. eigenvalues --    0.54784   0.57414   0.58520   0.59387   0.60217
 Alpha virt. eigenvalues --    0.60687   0.61586   0.61885   0.65009   0.65620
 Alpha virt. eigenvalues --    0.66577   0.67670   0.67913   0.68354   0.69877
 Alpha virt. eigenvalues --    0.70444   0.71717   0.72245   0.73456   0.73845
 Alpha virt. eigenvalues --    0.74547   0.75098   0.75198   0.75771   0.75836
 Alpha virt. eigenvalues --    0.79120   0.80114   0.81127   0.81578   0.82435
 Alpha virt. eigenvalues --    0.83152   0.84313   0.84979   0.85288   0.87669
 Alpha virt. eigenvalues --    0.89017   0.89517   0.91304   0.91483   0.92243
 Alpha virt. eigenvalues --    0.93153   0.93711   0.94228   0.94689   0.95168
 Alpha virt. eigenvalues --    0.96313   0.96922   1.00300   1.04287   1.04795
 Alpha virt. eigenvalues --    1.04829   1.10037   1.12154   1.13395   1.15149
 Alpha virt. eigenvalues --    1.15829   1.19821   1.23185   1.23509   1.24297
 Alpha virt. eigenvalues --    1.25385   1.25838   1.27634   1.28996   1.29105
 Alpha virt. eigenvalues --    1.30135   1.31155   1.33582   1.34129   1.34587
 Alpha virt. eigenvalues --    1.35077   1.36404   1.38400   1.40268   1.40275
 Alpha virt. eigenvalues --    1.40733   1.41183   1.42086   1.42433   1.43214
 Alpha virt. eigenvalues --    1.43729   1.44312   1.45646   1.47120   1.47527
 Alpha virt. eigenvalues --    1.50045   1.50803   1.51131   1.51332   1.52513
 Alpha virt. eigenvalues --    1.53591   1.56716   1.56815   1.58737   1.58948
 Alpha virt. eigenvalues --    1.60413   1.60628   1.61880   1.62784   1.64376
 Alpha virt. eigenvalues --    1.65788   1.67132   1.69149   1.71104   1.73541
 Alpha virt. eigenvalues --    1.74548   1.75550   1.75881   1.75935   1.77888
 Alpha virt. eigenvalues --    1.80946   1.80983   1.82554   1.82952   1.83058
 Alpha virt. eigenvalues --    1.83965   1.85729   1.86377   1.90185   1.90944
 Alpha virt. eigenvalues --    1.91214   1.91564   1.92439   1.93130   1.95600
 Alpha virt. eigenvalues --    1.95752   1.98589   2.00287   2.03759   2.06671
 Alpha virt. eigenvalues --    2.09069   2.11891   2.13585   2.13727   2.15049
 Alpha virt. eigenvalues --    2.19097   2.19290   2.20041   2.20975   2.22287
 Alpha virt. eigenvalues --    2.23077   2.23849   2.23967   2.28479   2.29672
 Alpha virt. eigenvalues --    2.31405   2.31864   2.32833   2.33261   2.34966
 Alpha virt. eigenvalues --    2.35464   2.38279   2.38550   2.40719   2.42393
 Alpha virt. eigenvalues --    2.42799   2.44006   2.44291   2.47476   2.47928
 Alpha virt. eigenvalues --    2.48105   2.48376   2.48750   2.49160   2.50109
 Alpha virt. eigenvalues --    2.52278   2.53935   2.55171   2.55203   2.56761
 Alpha virt. eigenvalues --    2.57221   2.62584   2.62867   2.63159   2.63436
 Alpha virt. eigenvalues --    2.64947   2.66077   2.67250   2.67282   2.68650
 Alpha virt. eigenvalues --    2.69474   2.70443   2.73435   2.74994   2.77086
 Alpha virt. eigenvalues --    2.77572   2.77626   2.78757   2.81375   2.83636
 Alpha virt. eigenvalues --    2.86085   2.87673   2.89408   2.91651   3.02268
 Alpha virt. eigenvalues --    3.08046   3.12952   3.14165   3.17967   3.19242
 Alpha virt. eigenvalues --    3.23011   3.26112   3.27196   3.32219   3.35041
 Alpha virt. eigenvalues --    3.40342   3.41877   3.42343   3.44041   3.47912
 Alpha virt. eigenvalues --    3.49402   3.50571   3.52831   3.58044   3.65063
 Alpha virt. eigenvalues --    3.66297   3.70470   3.72714   3.74992   3.77744
 Alpha virt. eigenvalues --    3.84888   3.86974   3.92358   3.95032   4.14947
 Alpha virt. eigenvalues --    4.26727   4.27601   4.29289   4.29369   4.36561
 Alpha virt. eigenvalues --    4.45922   4.67771   5.00598   5.18048  23.40191
 Alpha virt. eigenvalues --   23.47653  23.51829  23.55505  23.69130  23.71047
 Alpha virt. eigenvalues --   23.83335  23.90272  23.99335  24.01372  24.07429
 Alpha virt. eigenvalues --   24.09174  24.14997  35.16368  35.38840  35.63755
          Condensed to atoms (all electrons):
               1          2          3          4          5          6
     1  N    6.703333  -0.261450   0.513055   0.012327   0.302413  -0.102046
     2  C   -0.261450  10.781234  -4.971446   0.338303  -0.023177   1.181574
     3  C    0.513055  -4.971446  15.396923  -1.793264  -2.078883  -0.861594
     4  C    0.012327   0.338303  -1.793264   8.438730  -1.515261   0.372261
     5  C    0.302413  -0.023177  -2.078883  -1.515261  12.809785  -3.259163
     6  C   -0.102046   1.181574  -0.861594   0.372261  -3.259163   9.450959
     7  C   -0.002456   0.052226  -0.856077   2.149066  -1.450901   0.173370
     8  C    0.039723  -1.531329   3.687520  -0.488458  -3.035241   0.149989
     9  C   -0.000700   0.009822   0.669533  -0.408959  -0.688737   0.038495
    10  N   -0.000141   0.006084  -0.022656  -0.084610   0.018169   0.007672
    11  C   -0.000530  -0.043772  -0.365405  -0.336190   0.251939   0.090389
    12  C    0.008910   0.599472  -3.802929  -0.378519   3.721070  -0.767129
    13  C   -0.000180   0.008753  -0.096916  -0.170698   0.067205   0.016322
    14  C   -0.000058   0.006918   0.037161   0.026256  -0.011254   0.002228
    15  C   -0.000003   0.000962  -0.000111  -0.003574   0.003852   0.000313
    16  N    0.000000  -0.000002   0.000077  -0.000089  -0.000047   0.000000
    17  H   -0.157057   0.589155  -0.234364   0.037913  -0.049812   0.082111
    18  H    0.036915  -0.213305   0.721040  -0.122408  -0.022593  -0.066102
    19  H    0.026167  -0.048847   0.061279  -0.085920   0.522375  -0.147010
    20  H   -0.149916   0.104491  -0.088869   0.036571  -0.157157   0.527864
    21  H   -0.007613   0.118887  -0.144745  -0.021386   0.040691   0.020957
    22  H    0.000629  -0.014052   0.052786   0.007120  -0.026600  -0.004554
    23  H    0.000138  -0.002055   0.001824   0.003511   0.002827  -0.003564
    24  H   -0.003704   0.021879  -0.071648  -0.054908   0.040492   0.058840
    25  H   -0.000004   0.000189   0.000094  -0.000205   0.001095   0.000310
    26  H    0.000000   0.000286   0.000382   0.001516   0.000718   0.000019
    27  H   -0.000007   0.000293  -0.000452  -0.001579   0.000602   0.000155
    28  H   -0.000005   0.000452   0.000500  -0.000143   0.000240   0.000032
    29  H    0.000000  -0.000015  -0.000014  -0.000014  -0.000061  -0.000004
    30  H    0.000000  -0.000008   0.000035   0.000065  -0.000082  -0.000007
    31  H    0.000000   0.000000   0.000002  -0.000016   0.000001   0.000000
    32  H    0.000000   0.000001   0.000028   0.000011  -0.000008   0.000000
    33  H    0.000000   0.000000   0.000022   0.000004  -0.000006   0.000001
               7          8          9         10         11         12
     1  N   -0.002456   0.039723  -0.000700  -0.000141  -0.000530   0.008910
     2  C    0.052226  -1.531329   0.009822   0.006084  -0.043772   0.599472
     3  C   -0.856077   3.687520   0.669533  -0.022656  -0.365405  -3.802929
     4  C    2.149066  -0.488458  -0.408959  -0.084610  -0.336190  -0.378519
     5  C   -1.450901  -3.035241  -0.688737   0.018169   0.251939   3.721070
     6  C    0.173370   0.149989   0.038495   0.007672   0.090389  -0.767129
     7  C    8.780371  -0.140842  -0.434755  -0.184489  -0.532212  -1.110001
     8  C   -0.140842   9.450286   1.670706  -0.154919  -0.095787  -3.561497
     9  C   -0.434755   1.670706   6.408910   0.107653   0.081317  -1.259259
    10  N   -0.184489  -0.154919   0.107653   6.651202   0.282081  -0.059004
    11  C   -0.532212  -0.095787   0.081317   0.282081   5.558871   1.049758
    12  C   -1.110001  -3.561497  -1.259259  -0.059004   1.049758  11.273253
    13  C   -0.307219  -0.086991  -0.223160   0.352581  -0.286782   0.094529
    14  C   -0.076903  -0.027140   0.184829  -0.157437   0.041002  -0.043967
    15  C   -0.042588   0.070404  -0.448234   0.011397  -0.213091   0.025921
    16  N    0.000530  -0.005298   0.020699  -0.002636   0.004450  -0.000833
    17  H   -0.000549  -0.013670   0.000990  -0.000007   0.000101  -0.000644
    18  H   -0.083348   0.175323   0.014692  -0.003673  -0.009017  -0.105511
    19  H   -0.047643  -0.012188  -0.004265  -0.002592  -0.016232   0.056365
    20  H   -0.008083  -0.011890  -0.000109  -0.000059  -0.001083   0.010298
    21  H   -0.014758   0.161479  -0.093206   0.034873  -0.000108   0.144486
    22  H    0.040705   0.064382   0.481606  -0.105269   0.010083  -0.098990
    23  H    0.015119  -0.006141  -0.009875  -0.099607   0.379195   0.019726
    24  H   -0.058393  -0.044033  -0.012645   0.032173  -0.023783   0.409865
    25  H    0.012431  -0.002950  -0.023919  -0.023291   0.001364   0.002277
    26  H    0.009442  -0.000255  -0.034389  -0.016529   0.009663   0.006548
    27  H    0.002239  -0.009065   0.001368   0.012259   0.000036   0.001965
    28  H    0.000105  -0.004124  -0.018998   0.015581   0.006097   0.002046
    29  H   -0.000002  -0.001491   0.006572  -0.001348   0.005875  -0.000142
    30  H   -0.000177  -0.001089   0.004478  -0.000890   0.007296  -0.000027
    31  H   -0.000014   0.000035  -0.001737  -0.000250  -0.000702   0.000000
    32  H    0.000012  -0.000046  -0.000372   0.000135   0.000364  -0.000005
    33  H    0.000009  -0.000080  -0.000288   0.000117   0.000444  -0.000007
              13         14         15         16         17         18
     1  N   -0.000180  -0.000058  -0.000003   0.000000  -0.157057   0.036915
     2  C    0.008753   0.006918   0.000962  -0.000002   0.589155  -0.213305
     3  C   -0.096916   0.037161  -0.000111   0.000077  -0.234364   0.721040
     4  C   -0.170698   0.026256  -0.003574  -0.000089   0.037913  -0.122408
     5  C    0.067205  -0.011254   0.003852  -0.000047  -0.049812  -0.022593
     6  C    0.016322   0.002228   0.000313   0.000000   0.082111  -0.066102
     7  C   -0.307219  -0.076903  -0.042588   0.000530  -0.000549  -0.083348
     8  C   -0.086991  -0.027140   0.070404  -0.005298  -0.013670   0.175323
     9  C   -0.223160   0.184829  -0.448234   0.020699   0.000990   0.014692
    10  N    0.352581  -0.157437   0.011397  -0.002636  -0.000007  -0.003673
    11  C   -0.286782   0.041002  -0.213091   0.004450   0.000101  -0.009017
    12  C    0.094529  -0.043967   0.025921  -0.000833  -0.000644  -0.105511
    13  C    7.284360  -0.993126   0.288240   0.012480   0.000110  -0.011714
    14  C   -0.993126   7.532755  -1.782516   0.189125   0.000110   0.001700
    15  C    0.288240  -1.782516   8.624604  -0.224293   0.000017  -0.001226
    16  N    0.012480   0.189125  -0.224293   6.187863   0.000000   0.000025
    17  H    0.000110   0.000110   0.000017   0.000000   0.542982  -0.026275
    18  H   -0.011714   0.001700  -0.001226   0.000025  -0.026275   0.574144
    19  H   -0.003652   0.000012  -0.000118   0.000001  -0.001333   0.000404
    20  H   -0.000123   0.000049   0.000003   0.000000   0.008360  -0.002764
    21  H    0.068826  -0.015738   0.013774  -0.000349   0.007559  -0.013789
    22  H   -0.160530   0.120110  -0.053566   0.002662  -0.000824   0.009760
    23  H    0.047462   0.012329  -0.007687   0.000318  -0.000007   0.000013
    24  H    0.021402  -0.001464   0.002920  -0.000049   0.000554  -0.003199
    25  H    0.354974  -0.007945  -0.006977  -0.000360  -0.000001   0.000054
    26  H    0.330648  -0.009684   0.009258  -0.000226  -0.000001   0.000073
    27  H   -0.038300   0.454394  -0.088194  -0.001601   0.000011  -0.000304
    28  H   -0.063386   0.455033  -0.056739  -0.001489   0.000011  -0.000230
    29  H   -0.031453   0.050586   0.297252  -0.003302   0.000000   0.000011
    30  H   -0.028166   0.038907   0.309338  -0.005045   0.000000   0.000008
    31  H    0.000031  -0.011133   0.016854   0.319613   0.000000  -0.000001
    32  H   -0.001177   0.014466  -0.025072   0.349237   0.000000   0.000003
    33  H    0.000493   0.012412  -0.024377   0.349029   0.000000   0.000002
              19         20         21         22         23         24
     1  N    0.026167  -0.149916  -0.007613   0.000629   0.000138  -0.003704
     2  C   -0.048847   0.104491   0.118887  -0.014052  -0.002055   0.021879
     3  C    0.061279  -0.088869  -0.144745   0.052786   0.001824  -0.071648
     4  C   -0.085920   0.036571  -0.021386   0.007120   0.003511  -0.054908
     5  C    0.522375  -0.157157   0.040691  -0.026600   0.002827   0.040492
     6  C   -0.147010   0.527864   0.020957  -0.004554  -0.003564   0.058840
     7  C   -0.047643  -0.008083  -0.014758   0.040705   0.015119  -0.058393
     8  C   -0.012188  -0.011890   0.161479   0.064382  -0.006141  -0.044033
     9  C   -0.004265  -0.000109  -0.093206   0.481606  -0.009875  -0.012645
    10  N   -0.002592  -0.000059   0.034873  -0.105269  -0.099607   0.032173
    11  C   -0.016232  -0.001083  -0.000108   0.010083   0.379195  -0.023783
    12  C    0.056365   0.010298   0.144486  -0.098990   0.019726   0.409865
    13  C   -0.003652  -0.000123   0.068826  -0.160530   0.047462   0.021402
    14  C    0.000012   0.000049  -0.015738   0.120110   0.012329  -0.001464
    15  C   -0.000118   0.000003   0.013774  -0.053566  -0.007687   0.002920
    16  N    0.000001   0.000000  -0.000349   0.002662   0.000318  -0.000049
    17  H   -0.001333   0.008360   0.007559  -0.000824  -0.000007   0.000554
    18  H    0.000404  -0.002764  -0.013789   0.009760   0.000013  -0.003199
    19  H    0.548063  -0.017698  -0.001328   0.000238   0.001883   0.007470
    20  H   -0.017698   0.533192   0.001128  -0.000104  -0.000196   0.003123
    21  H   -0.001328   0.001128   0.535090  -0.055246  -0.000105   0.004660
    22  H    0.000238  -0.000104  -0.055246   0.554418   0.000403  -0.003249
    23  H    0.001883  -0.000196  -0.000105   0.000403   0.469566  -0.020447
    24  H    0.007470   0.003123   0.004660  -0.003249  -0.020447   0.478371
    25  H   -0.000148   0.000005  -0.000432   0.002310  -0.006416   0.001612
    26  H   -0.000070   0.000003  -0.000631   0.003601  -0.005609   0.000954
    27  H   -0.000016   0.000001   0.001930  -0.004331   0.000067   0.000182
    28  H    0.000001   0.000001   0.001126  -0.000368  -0.000039   0.000062
    29  H    0.000003   0.000000  -0.000165   0.002163   0.000760  -0.000091
    30  H    0.000005   0.000000  -0.000140   0.002203   0.000708  -0.000106
    31  H    0.000000   0.000000   0.000018  -0.000191  -0.000049   0.000005
    32  H    0.000000   0.000000  -0.000023  -0.000232   0.000068  -0.000008
    33  H    0.000000   0.000000  -0.000002  -0.000363   0.000072  -0.000008
              25         26         27         28         29         30
     1  N   -0.000004   0.000000  -0.000007  -0.000005   0.000000   0.000000
     2  C    0.000189   0.000286   0.000293   0.000452  -0.000015  -0.000008
     3  C    0.000094   0.000382  -0.000452   0.000500  -0.000014   0.000035
     4  C   -0.000205   0.001516  -0.001579  -0.000143  -0.000014   0.000065
     5  C    0.001095   0.000718   0.000602   0.000240  -0.000061  -0.000082
     6  C    0.000310   0.000019   0.000155   0.000032  -0.000004  -0.000007
     7  C    0.012431   0.009442   0.002239   0.000105  -0.000002  -0.000177
     8  C   -0.002950  -0.000255  -0.009065  -0.004124  -0.001491  -0.001089
     9  C   -0.023919  -0.034389   0.001368  -0.018998   0.006572   0.004478
    10  N   -0.023291  -0.016529   0.012259   0.015581  -0.001348  -0.000890
    11  C    0.001364   0.009663   0.000036   0.006097   0.005875   0.007296
    12  C    0.002277   0.006548   0.001965   0.002046  -0.000142  -0.000027
    13  C    0.354974   0.330648  -0.038300  -0.063386  -0.031453  -0.028166
    14  C   -0.007945  -0.009684   0.454394   0.455033   0.050586   0.038907
    15  C   -0.006977   0.009258  -0.088194  -0.056739   0.297252   0.309338
    16  N   -0.000360  -0.000226  -0.001601  -0.001489  -0.003302  -0.005045
    17  H   -0.000001  -0.000001   0.000011   0.000011   0.000000   0.000000
    18  H    0.000054   0.000073  -0.000304  -0.000230   0.000011   0.000008
    19  H   -0.000148  -0.000070  -0.000016   0.000001   0.000003   0.000005
    20  H    0.000005   0.000003   0.000001   0.000001   0.000000   0.000000
    21  H   -0.000432  -0.000631   0.001930   0.001126  -0.000165  -0.000140
    22  H    0.002310   0.003601  -0.004331  -0.000368   0.002163   0.002203
    23  H   -0.006416  -0.005609   0.000067  -0.000039   0.000760   0.000708
    24  H    0.001612   0.000954   0.000182   0.000062  -0.000091  -0.000106
    25  H    0.529064  -0.071437   0.023498  -0.033942   0.007375  -0.003706
    26  H   -0.071437   0.525134  -0.036113   0.023516  -0.004252   0.007198
    27  H    0.023498  -0.036113   0.606215  -0.116795   0.019108  -0.030782
    28  H   -0.033942   0.023516  -0.116795   0.598203  -0.031072   0.018603
    29  H    0.007375  -0.004252   0.019108  -0.031072   0.467377  -0.038747
    30  H   -0.003706   0.007198  -0.030782   0.018603  -0.038747   0.465285
    31  H    0.000328   0.000326   0.000044   0.000170  -0.001933  -0.001965
    32  H   -0.001225   0.001161   0.006429  -0.000367   0.006018  -0.010782
    33  H    0.001066  -0.001161  -0.000508   0.006988  -0.010850   0.005918
              31         32         33
     1  N    0.000000   0.000000   0.000000
     2  C    0.000000   0.000001   0.000000
     3  C    0.000002   0.000028   0.000022
     4  C   -0.000016   0.000011   0.000004
     5  C    0.000001  -0.000008  -0.000006
     6  C    0.000000   0.000000   0.000001
     7  C   -0.000014   0.000012   0.000009
     8  C    0.000035  -0.000046  -0.000080
     9  C   -0.001737  -0.000372  -0.000288
    10  N   -0.000250   0.000135   0.000117
    11  C   -0.000702   0.000364   0.000444
    12  C    0.000000  -0.000005  -0.000007
    13  C    0.000031  -0.001177   0.000493
    14  C   -0.011133   0.014466   0.012412
    15  C    0.016854  -0.025072  -0.024377
    16  N    0.319613   0.349237   0.349029
    17  H    0.000000   0.000000   0.000000
    18  H   -0.000001   0.000003   0.000002
    19  H    0.000000   0.000000   0.000000
    20  H    0.000000   0.000000   0.000000
    21  H    0.000018  -0.000023  -0.000002
    22  H   -0.000191  -0.000232  -0.000363
    23  H   -0.000049   0.000068   0.000072
    24  H    0.000005  -0.000008  -0.000008
    25  H    0.000328  -0.001225   0.001066
    26  H    0.000326   0.001161  -0.001161
    27  H    0.000044   0.006429  -0.000508
    28  H    0.000170  -0.000367   0.006988
    29  H   -0.001933   0.006018  -0.010850
    30  H   -0.001965  -0.010782   0.005918
    31  H    0.320689  -0.011333  -0.011466
    32  H   -0.011333   0.350209  -0.026016
    33  H   -0.011466  -0.026016   0.349749
 Mulliken charges:
               1
     1  N    0.042262
     2  C   -0.711524
     3  C    0.247111
     4  C    0.042546
     5  C    0.535507
     6  C   -0.962690
     7  C    0.115784
     8  C   -0.235323
     9  C   -0.038062
    10  N    0.387432
    11  C    0.144371
    12  C   -0.238026
    13  C   -0.444843
    14  C   -0.042016
    15  C   -0.696742
    16  N   -0.190489
    17  H    0.214561
    18  H    0.151295
    19  H    0.164794
    20  H    0.212962
    21  H    0.214281
    22  H    0.173289
    23  H    0.205811
    24  H    0.213172
    25  H    0.244912
    26  H    0.249912
    27  H    0.197250
    28  H    0.198932
    29  H    0.261856
    30  H    0.261671
    31  H    0.382672
    32  H    0.348525
    33  H    0.348806
 Sum of Mulliken charges =   2.00000
 Mulliken charges with hydrogens summed into heavy atoms:
               1
     1  N    0.042262
     2  C   -0.496963
     3  C    0.398406
     4  C    0.042546
     5  C    0.700301
     6  C   -0.749728
     7  C    0.115784
     8  C   -0.021042
     9  C    0.135228
    10  N    0.387432
    11  C    0.350182
    12  C   -0.024854
    13  C    0.049980
    14  C    0.354166
    15  C   -0.173215
    16  N    0.889514
 Electronic spatial extent (au):  <R**2>=           6279.3571
 Charge=              2.0000 electrons
 Dipole moment (field-independent basis, Debye):
    X=            -29.8013    Y=             -1.7589    Z=              0.0674  Tot=             29.8532
 Quadrupole moment (field-independent basis, Debye-Ang):
   XX=            124.9919   YY=            -64.3726   ZZ=            -90.1344
   XY=             24.1422   XZ=             -0.6554   YZ=              0.0052
 Traceless Quadrupole moment (field-independent basis, Debye-Ang):
   XX=            134.8303   YY=            -54.5342   ZZ=            -80.2960
   XY=             24.1422   XZ=             -0.6554   YZ=              0.0052
 Octapole moment (field-independent basis, Debye-Ang**2):
  XXX=          -1296.6114  YYY=             -6.1067  ZZZ=              0.3583  XYY=            -38.3678
  XXY=           -145.0983  XXZ=              5.0191  XZZ=            -44.3285  YZZ=             -3.8371
  YYZ=              0.1322  XYZ=              1.2422
 Hexadecapole moment (field-independent basis, Debye-Ang**3):
 XXXX=            729.8558 YYYY=           -548.6551 ZZZZ=           -115.5816 XXXY=           1204.9265
 XXXZ=            -33.8966 YYYX=             62.1582 YYYZ=              0.7192 ZZZX=             -2.4655
 ZZZY=             -0.9738 XXYY=           -883.7500 XXZZ=          -1146.0372 YYZZ=           -128.4520
 XXYZ=             -3.2445 YYXZ=             -0.9482 ZZXY=             28.4629
 N-N= 1.016467419988D+03 E-N=-3.557781577415D+03  KE= 6.679936147633D+02

 **********************************************************************

            Electrostatic Properties Using The SCF Density

 **********************************************************************

       Atomic Center    1 is at   5.390627 -0.476735  0.013249
       Atomic Center    2 is at   4.565623 -1.433138 -0.000281
       Atomic Center    3 is at   3.230808 -1.279776 -0.007104
       Atomic Center    4 is at   2.663428 -0.052949  0.000273
       Atomic Center    5 is at   3.576417  0.943787  0.014581
       Atomic Center    6 is at   4.894930  0.685051  0.020464
       Atomic Center    7 is at   1.319970  0.155830 -0.005799
       Atomic Center    8 is at   0.410840 -0.843594 -0.018132
       Atomic Center    9 is at  -0.911898 -0.607185 -0.023138
       Atomic Center   10 is at  -1.443585  0.583971 -0.017094
       Atomic Center   11 is at  -0.573669  1.556690 -0.005624
       Atomic Center   12 is at   0.758305  1.384432  0.000124
       Atomic Center   13 is at  -2.953419  0.861773 -0.021678
       Atomic Center   14 is at  -3.954624 -0.316424  0.003750
       Atomic Center   15 is at  -5.421441  0.164657  0.005166
       Atomic Center   16 is at  -6.348782 -1.026843  0.030123
       Atomic Center   17 is at   5.007551 -2.444877 -0.006513
       Atomic Center   18 is at   2.656524 -2.217254 -0.019023
       Atomic Center   19 is at   3.313400  2.011266  0.022599
       Atomic Center   20 is at   5.623009  1.514904  0.032450
       Atomic Center   21 is at   0.686866 -1.908096 -0.024376
       Atomic Center   22 is at  -1.597745 -1.469152 -0.033032
       Atomic Center   23 is at  -0.982479  2.581938 -0.000443
       Atomic Center   24 is at   1.342362  2.316036  0.009877
       Atomic Center   25 is at  -3.176127  1.507509  0.862199
       Atomic Center   26 is at  -3.176500  1.472439 -0.929975
       Atomic Center   27 is at  -3.789824 -0.963821 -0.890429
       Atomic Center   28 is at  -3.776992 -0.934250  0.916243
       Atomic Center   29 is at  -5.627065  0.794369  0.901103
       Atomic Center   30 is at  -5.638098  0.765306 -0.907967
       Atomic Center   31 is at  -7.340135 -0.696411  0.030790
       Atomic Center   32 is at  -6.177273 -1.617694 -0.814574
       Atomic Center   33 is at  -6.166915 -1.589872  0.891500
 -----------------------------------------------------------------

              Electrostatic Properties (Atomic Units)

 -----------------------------------------------------------------
    Center     Electric         -------- Electric Field --------
               Potential          X             Y             Z
 -----------------------------------------------------------------
    1 Atom    -18.237547      0.058040     -0.009007      0.000279
    2 Atom    -14.573271     -0.000978     -0.023075     -0.000211
    3 Atom    -14.578801     -0.005159     -0.013196     -0.000146
    4 Atom    -14.559840      0.010534     -0.001602      0.000045
    5 Atom    -14.579262     -0.001008      0.014319      0.000119
    6 Atom    -14.573646      0.006130      0.022320      0.000236
    7 Atom    -14.507808     -0.000982      0.000118     -0.000012
    8 Atom    -14.516100      0.002846     -0.014299     -0.000091
    9 Atom    -14.460563     -0.001347     -0.023501     -0.000176
   10 Atom    -18.029053     -0.014605      0.001265     -0.000015
   11 Atom    -14.464554      0.005027      0.024578      0.000230
   12 Atom    -14.517165      0.006810      0.013062      0.000113
   13 Atom    -14.417823     -0.009722      0.007016     -0.000177
   14 Atom    -14.444481      0.003634     -0.003646      0.000064
   15 Atom    -14.397962      0.009739      0.013684     -0.000288
   16 Atom    -17.955717      0.001206      0.002713     -0.000046
   17 Atom     -0.939459      0.000044     -0.009851     -0.000091
   18 Atom     -0.899338     -0.007078     -0.005137     -0.000097
   19 Atom     -0.900446     -0.005176      0.007038      0.000030
   20 Atom     -0.940117      0.002975      0.009381      0.000094
   21 Atom     -0.845141      0.004523     -0.004949     -0.000019
   22 Atom     -0.814370     -0.004333     -0.004257     -0.000045
   23 Atom     -0.821957     -0.002656      0.005798      0.000037
   24 Atom     -0.847161      0.005561      0.003630      0.000054
   25 Atom     -0.810123      0.005790      0.002774      0.002577
   26 Atom     -0.810477      0.005490      0.002653     -0.002785
   27 Atom     -0.806887      0.001240     -0.003931     -0.003371
   28 Atom     -0.806872      0.001252     -0.003839      0.003508
   29 Atom     -0.784456     -0.004719      0.000588      0.002691
   30 Atom     -0.784457     -0.004760      0.000506     -0.002649
   31 Atom     -0.644120     -0.007323     -0.003573      0.000098
   32 Atom     -0.643639     -0.004480     -0.006593     -0.002415
   33 Atom     -0.643644     -0.004444     -0.006513      0.002673
 -----------------------------------------------------------------
 -----------------------------------------------------
    Center         ---- Electric Field Gradient ----
                     XX            YY            ZZ
 -----------------------------------------------------
    1 Atom     -813.304850   -814.663542   -815.542964
    2 Atom     -500.993977   -500.991732   -501.582159
    3 Atom     -500.904725   -501.022891   -501.484358
    4 Atom     -500.875061   -500.724200   -501.266188
    5 Atom     -500.891461   -501.040073   -501.493555
    6 Atom     -500.971685   -501.016351   -501.586277
    7 Atom     -501.060493   -501.107839   -501.911774
    8 Atom     -500.889020   -500.854211   -501.362138
    9 Atom     -500.734204   -501.055738   -501.302069
   10 Atom     -812.751674   -812.414225   -812.070370
   11 Atom     -500.849049   -500.992101   -501.344638
   12 Atom     -500.911942   -500.849633   -501.389217
   13 Atom     -500.732877   -500.195514   -500.036196
   14 Atom     -500.343489   -500.226061   -500.119972
   15 Atom     -500.481709   -500.608835   -500.096648
   16 Atom     -812.258158   -812.304206   -812.265356
   17 Atom       -1.742410     -2.024207     -1.664067
   18 Atom       -1.806965     -1.975524     -1.653107
   19 Atom       -1.711156     -2.067225     -1.651594
   20 Atom       -1.849064     -1.915486     -1.663354
   21 Atom       -1.681973     -2.030108     -1.625939
   22 Atom       -1.836569     -1.914403     -1.642762
   23 Atom       -1.715495     -1.990815     -1.627104
   24 Atom       -1.767191     -1.935897     -1.622767
   25 Atom       -1.680047     -1.765718     -1.878974
   26 Atom       -1.679717     -1.752140     -1.892339
   27 Atom       -1.676649     -1.782814     -1.898131
   28 Atom       -1.677140     -1.770520     -1.908066
   29 Atom       -1.661370     -1.758155     -1.881927
   30 Atom       -1.662813     -1.747342     -1.890925
   31 Atom       -1.898413     -1.545856     -1.500521
   32 Atom       -1.526480     -1.653860     -1.802918
   33 Atom       -1.527969     -1.640799     -1.814359
 -----------------------------------------------------
 -----------------------------------------------------
    Center         ---- Electric Field Gradient ----
                     XY            XZ            YZ
 -----------------------------------------------------
    1 Atom       -0.217366      0.011972      0.006395
    2 Atom       -0.039847      0.003258      0.004987
    3 Atom       -0.049349      0.003034      0.003911
    4 Atom        0.024289      0.002578      0.004910
    5 Atom        0.003722      0.003806      0.004119
    6 Atom        0.034555      0.004137      0.005276
    7 Atom       -0.009426      0.004762      0.005790
    8 Atom        0.028330      0.002685      0.003849
    9 Atom        0.090699      0.003256      0.002259
   10 Atom        0.051145     -0.001862     -0.002225
   11 Atom       -0.184094      0.000596      0.001633
   12 Atom       -0.009062      0.002474      0.003842
   13 Atom        0.107415     -0.000615      0.002766
   14 Atom       -0.008772      0.001869      0.001691
   15 Atom       -0.327761      0.007853      0.010127
   16 Atom       -0.025888      0.000400      0.000758
   17 Atom        0.141074      0.000765     -0.002315
   18 Atom       -0.189958     -0.002620     -0.004038
   19 Atom        0.106139      0.000582     -0.003091
   20 Atom       -0.196394     -0.002919     -0.003486
   21 Atom        0.099475      0.000436     -0.002389
   22 Atom       -0.194665     -0.002400     -0.002958
   23 Atom        0.134856      0.000584     -0.001959
   24 Atom       -0.181573     -0.002082     -0.003217
   25 Atom        0.037640      0.056140     -0.174325
   26 Atom        0.035790     -0.057845      0.169269
   27 Atom        0.027605      0.041782     -0.180910
   28 Atom        0.028534     -0.045843      0.176273
   29 Atom        0.027671      0.062285     -0.168638
   30 Atom        0.027689     -0.065928      0.163972
   31 Atom        0.132566      0.000265     -0.000071
   32 Atom        0.040777      0.060638     -0.202476
   33 Atom        0.041146     -0.065381      0.196698
 -----------------------------------------------------
 -----------------------------------------------------
    Center         ---- Electric Field Gradient ----
                   ----       Eigenvalues       ----
 -----------------------------------------------------
    1 Atom     -815.543095   -814.697390   -813.270871
    2 Atom     -501.582223   -501.032656   -500.952989
    3 Atom     -501.484412   -501.040740   -500.886823
    4 Atom     -501.266247   -500.878867   -500.720335
    5 Atom     -501.493616   -501.040131   -500.891342
    6 Atom     -501.586350   -501.035149   -500.952815
    7 Atom     -501.911843   -501.109593   -501.058670
    8 Atom     -501.362180   -500.904864   -500.838324
    9 Atom     -501.302100   -501.079550   -500.710361
   10 Atom     -812.759259   -812.406661   -812.070348
   11 Atom     -501.344650   -501.118063   -500.723074
   12 Atom     -501.389258   -500.913215   -500.848320
   13 Atom     -500.753555   -500.174886   -500.036145
   14 Atom     -500.344158   -500.225432   -500.119932
   15 Atom     -500.879349   -500.211405   -500.096437
   16 Atom     -812.315842   -812.265342   -812.246537
   17 Atom       -2.082708     -1.683926     -1.664052
   18 Atom       -2.099111     -1.683430     -1.653055
   19 Atom       -2.096484     -1.681921     -1.651569
   20 Atom       -2.081507     -1.683093     -1.663305
   21 Atom       -2.056540     -1.655555     -1.625924
   22 Atom       -2.074037     -1.676969     -1.642728
   23 Atom       -2.045872     -1.660449     -1.627093
   24 Atom       -2.051789     -1.651334     -1.622732
   25 Atom       -2.019094     -1.666817     -1.638829
   26 Atom       -2.019067     -1.666299     -1.638829
   27 Atom       -2.037286     -1.669994     -1.650313
   28 Atom       -2.036604     -1.669313     -1.649810
   29 Atom       -2.012443     -1.657891     -1.631117
   30 Atom       -2.012305     -1.657738     -1.631038
   31 Atom       -1.942697     -1.501573     -1.500521
   32 Atom       -1.956558     -1.514772     -1.511928
   33 Atom       -1.956492     -1.514732     -1.511903
 -----------------------------------------------------
 -----------------------------------------------------
    Center         ---- Electric Field Gradient ----
                       ( tensor representation )
                   3XX-RR        3YY-RR        3ZZ-RR
 -----------------------------------------------------
    1 Atom        1.198935     -0.159756     -1.039179
    2 Atom        0.195312      0.197558     -0.392870
    3 Atom        0.232600      0.114433     -0.347033
    4 Atom        0.080088      0.230950     -0.311038
    5 Atom        0.250236      0.101623     -0.351859
    6 Atom        0.219752      0.175087     -0.394839
    7 Atom        0.299543      0.252196     -0.551739
    8 Atom        0.146103      0.180912     -0.327015
    9 Atom        0.296466     -0.025067     -0.271398
   10 Atom       -0.339585     -0.002135      0.341720
   11 Atom        0.212880      0.069829     -0.282709
   12 Atom        0.138322      0.200631     -0.338953
   13 Atom       -0.411348      0.126015      0.285333
   14 Atom       -0.113648      0.003780      0.109869
   15 Atom       -0.085978     -0.213104      0.299083
   16 Atom        0.017748     -0.028299      0.010551
   17 Atom        0.067818     -0.213979      0.146161
   18 Atom        0.004900     -0.163659      0.158758
   19 Atom        0.098835     -0.257233      0.158398
   20 Atom       -0.039763     -0.106184      0.145947
   21 Atom        0.097367     -0.250768      0.153401
   22 Atom       -0.038658     -0.116492      0.155150
   23 Atom        0.062309     -0.213010      0.150701
   24 Atom        0.008094     -0.160612      0.152518
   25 Atom        0.094866      0.009195     -0.104061
   26 Atom        0.095015      0.022592     -0.117607
   27 Atom        0.109216      0.003051     -0.112266
   28 Atom        0.108102      0.014722     -0.122824
   29 Atom        0.105780      0.008996     -0.114776
   30 Atom        0.104214      0.019685     -0.123899
   31 Atom       -0.250149      0.102407      0.147742
   32 Atom        0.134606      0.007226     -0.141832
   33 Atom        0.133073      0.020243     -0.153317
 -----------------------------------------------------
 -----------------------------------------------------
    Center         ---- Electric Field Gradient ----
                       ( tensor representation )
                   ----       Eigenvalues       ----
 -----------------------------------------------------
    1 Atom       -1.039309     -0.193605      1.232914
    2 Atom       -0.392934      0.156633      0.236301
    3 Atom       -0.347087      0.096585      0.250502
    4 Atom       -0.311097      0.076282      0.234815
    5 Atom       -0.351920      0.101566      0.250354
    6 Atom       -0.394912      0.156289      0.238623
    7 Atom       -0.551808      0.250442      0.301365
    8 Atom       -0.327057      0.130259      0.196798
    9 Atom       -0.271430     -0.048879      0.320309
   10 Atom       -0.347169      0.005428      0.341741
   11 Atom       -0.282721     -0.056134      0.338856
   12 Atom       -0.338994      0.137050      0.201944
   13 Atom       -0.432026      0.146642      0.285384
   14 Atom       -0.114317      0.004409      0.109909
   15 Atom       -0.483618      0.184325      0.299293
   16 Atom       -0.039935      0.010565      0.029370
   17 Atom       -0.272479      0.126303      0.146177
   18 Atom       -0.287246      0.128436      0.158810
   19 Atom       -0.286493      0.128071      0.158422
   20 Atom       -0.272205      0.126209      0.145997
   21 Atom       -0.277200      0.123785      0.153416
   22 Atom       -0.276125      0.120942      0.155183
   23 Atom       -0.268068      0.117356      0.150712
   24 Atom       -0.276504      0.123951      0.152553
   25 Atom       -0.244181      0.108096      0.136084
   26 Atom       -0.244336      0.108433      0.135903
   27 Atom       -0.251422      0.115870      0.135552
   28 Atom       -0.251362      0.115929      0.135433
   29 Atom       -0.245293      0.109259      0.136034
   30 Atom       -0.245278      0.109289      0.135989
   31 Atom       -0.294433      0.146691      0.147742
   32 Atom       -0.295472      0.146314      0.149158
   33 Atom       -0.295450      0.146310      0.149139
 -----------------------------------------------------
 Calling FoFJK, ICntrl=      2127 FMM=F ISym2X=0 I1Cent= 0 IOpClX= 0 NMat=1 NMatS=1 NMatT=0.
 ***** Axes restored to original set *****
 -------------------------------------------------------------------
[...]
    17  H    0.224818
    18  H    0.186354
    19  H    0.186018
    20  H    0.222775
    21  H    0.242185
    22  H    0.207097
    23  H    0.205675
    24  H    0.246265
    25  H    0.225418
    26  H    0.228366
    27  H    0.197123
    28  H    0.197590
    29  H    0.257957
    30  H    0.258038
    31  H    0.368102
    32  H    0.346002
    33  H    0.346427
 Sum of Mulliken charges =   2.00000
 Mulliken charges with hydrogens summed into heavy atoms:
               1
     1  N    0.031830
     2  C   -0.551974
     3  C    0.593123
     4  C   -0.223073
     5  C    0.684889
     6  C   -0.538747
     7  C    0.036847
     8  C    0.596906
     9  C   -0.495924
    10  N    0.426301
    11  C   -0.313855
    12  C    0.656616
    13  C   -0.057545
    14  C    0.387441
    15  C   -0.093492
    16  N    0.860657
 Electronic spatial extent (au):  <R**2>=           6267.6822
 Charge=              2.0000 electrons
 Dipole moment (field-independent basis, Debye):
    X=            -28.9092    Y=              0.9351    Z=              2.3917  Tot=             29.0230
 Quadrupole moment (field-independent basis, Debye-Ang):
   XX=            113.4941   YY=            -68.6306   ZZ=            -81.8938
   XY=            -10.8312   XZ=            -24.3734   YZ=             -0.7292
 Traceless Quadrupole moment (field-independent basis, Debye-Ang):
   XX=            125.8375   YY=            -56.2872   ZZ=            -69.5504
   XY=            -10.8312   XZ=            -24.3734   YZ=             -0.7292
 Octapole moment (field-independent basis, Debye-Ang**2):
  XXX=          -1211.2584  YYY=              3.1095  ZZZ=             14.0974  XYY=             -9.2771
  XXY=             64.3848  XXZ=            174.4287  XZZ=            -85.6485  YZZ=              7.9615
  YYZ=              5.0972  XYZ=            -11.2492
 Hexadecapole moment (field-independent basis, Debye-Ang**3):
 XXXX=              2.0706 YYYY=           -481.8258 ZZZZ=           -270.8297 XXXY=           -557.6064
 XXXZ=          -1221.8048 YYYX=            -18.2353 YYYZ=             -0.4283 ZZZX=           -118.6990
 ZZZY=             -2.3274 XXYY=           -963.8817 XXZZ=           -952.2212 YYZZ=           -134.0890
 XXYZ=            108.4231 YYXZ=            -16.4912 ZZXY=            -24.5484
 N-N= 9.994963726304D+02 E-N=-3.522940104782D+03  KE= 6.665059290497D+02

 **********************************************************************

            Electrostatic Properties Using The SCF Density

 **********************************************************************

       Atomic Center    1 is at   5.445593  0.208210  0.453768
       Atomic Center    2 is at   4.860269 -0.973557  0.247386
       Atomic Center    3 is at   3.490685 -1.124239  0.045932
       Atomic Center    4 is at   2.679431  0.021741  0.037464
       Atomic Center    5 is at   3.300079  1.264336  0.243115
       Atomic Center    6 is at   4.675809  1.298806  0.455081
       Atomic Center    7 is at   1.232687 -0.075613 -0.182263
       Atomic Center    8 is at   0.500223 -1.228520  0.176402
       Atomic Center    9 is at  -0.851519 -1.303347 -0.052150
       Atomic Center   10 is at  -1.528796 -0.271718 -0.625354
       Atomic Center   11 is at  -0.854811  0.854097 -0.986209
       Atomic Center   12 is at   0.496750  0.973685 -0.775537
       Atomic Center   13 is at  -2.985223 -0.383257 -0.876958
       Atomic Center   14 is at  -3.832063  0.127941  0.308294
       Atomic Center   15 is at  -5.324283 -0.019674 -0.005499
       Atomic Center   16 is at  -6.190907  0.475903  1.146223
       Atomic Center   17 is at   5.513621 -1.840018  0.240252
       Atomic Center   18 is at   3.088953 -2.112302 -0.142961
       Atomic Center   19 is at   2.735030  2.187734  0.281453
       Atomic Center   20 is at   5.179229  2.243381  0.634096
       Atomic Center   21 is at   0.986332 -2.070836  0.649813
       Atomic Center   22 is at  -1.430818 -2.180318  0.205758
       Atomic Center   23 is at  -1.432762  1.631793 -1.468307
       Atomic Center   24 is at   0.988813  1.876054 -1.112583
       Atomic Center   25 is at  -3.201979  0.181005 -1.785204
       Atomic Center   26 is at  -3.199386 -1.432137 -1.087285
       Atomic Center   27 is at  -3.577805 -0.441417  1.208429
       Atomic Center   28 is at  -3.589244  1.177878  0.502460
       Atomic Center   29 is at  -5.623022  0.564134 -0.877440
       Atomic Center   30 is at  -5.610960 -1.059443 -0.169885
       Atomic Center   31 is at  -7.188908  0.374696  0.925086
       Atomic Center   32 is at  -6.019375 -0.049262  2.011203
       Atomic Center   33 is at  -6.027159  1.467897  1.352318
 -----------------------------------------------------------------

              Electrostatic Properties (Atomic Units)

 -----------------------------------------------------------------
    Center     Electric         -------- Electric Field --------
               Potential          X             Y             Z
 -----------------------------------------------------------------
    1 Atom    -18.222864      0.045980      0.003092      0.006915
    2 Atom    -14.555339      0.000153     -0.006684     -0.000761
    3 Atom    -14.563874      0.001885     -0.001728      0.000613
    4 Atom    -14.534203      0.003737      0.000246      0.000552
    5 Atom    -14.563555      0.001771      0.001860     -0.000125
    6 Atom    -14.555097     -0.000960      0.006585      0.000580
    7 Atom    -14.478285      0.004484      0.000332      0.000729
    8 Atom    -14.500150      0.004414     -0.001529      0.001811
    9 Atom    -14.448488      0.005215     -0.009367      0.004677
   10 Atom    -18.029177     -0.003251     -0.000433     -0.001031
   11 Atom    -14.448535      0.005138      0.009969     -0.003414
   12 Atom    -14.500121      0.004522      0.002155     -0.000505
   13 Atom    -14.432522     -0.009452     -0.000949     -0.002162
   14 Atom    -14.458391      0.001656     -0.000015     -0.000060
   15 Atom    -14.407004      0.008069     -0.003799     -0.008879
   16 Atom    -17.965365      0.003414     -0.002108     -0.004878
   17 Atom     -0.930322      0.012066     -0.015544     -0.000103
   18 Atom     -0.895528     -0.006845     -0.017684     -0.003480
   19 Atom     -0.894820     -0.009825      0.016559      0.000863
   20 Atom     -0.929897      0.009372      0.016986      0.003279
   21 Atom     -0.841865      0.008890     -0.015409      0.008754
   22 Atom     -0.809022     -0.010243     -0.016195      0.004795
   23 Atom     -0.809159     -0.010222      0.014384     -0.008862
   24 Atom     -0.841978      0.009037      0.016476     -0.006297
   25 Atom     -0.814432     -0.003953      0.009494     -0.015836
   26 Atom     -0.814518     -0.003867     -0.018068     -0.003918
   27 Atom     -0.814719      0.004570     -0.009457      0.014908
   28 Atom     -0.814742      0.004396      0.017402      0.003186
   29 Atom     -0.791210     -0.005133      0.009963     -0.015317
   30 Atom     -0.791190     -0.004951     -0.018060     -0.003099
   31 Atom     -0.652951     -0.020324     -0.002033     -0.004431
   32 Atom     -0.652874      0.003292     -0.010634      0.017665
   33 Atom     -0.652870      0.003113      0.020220      0.004279
 -----------------------------------------------------------------
 -----------------------------------------------------
    Center         ---- Electric Field Gradient ----
                     XX            YY            ZZ
 -----------------------------------------------------
    1 Atom     -813.629042   -815.104296   -815.670438
    2 Atom     -500.868434   -500.906283   -501.438197
    3 Atom     -500.791865   -500.879750   -501.294479
    4 Atom     -500.803664   -500.565403   -501.043334
    5 Atom     -500.794378   -500.881233   -501.279546
    6 Atom     -500.899562   -500.880608   -501.426456
    7 Atom     -500.944517   -501.073334   -501.580257
    8 Atom     -500.828023   -500.839261   -501.177026
    9 Atom     -500.751450   -501.036248   -501.249343
   10 Atom     -812.668043   -812.485328   -812.120069
   11 Atom     -500.755849   -501.086681   -501.196594
   12 Atom     -500.826129   -500.837858   -501.182904
   13 Atom     -500.749759   -500.120258   -500.251290
   14 Atom     -500.419716   -500.199952   -500.287671
   15 Atom     -500.518320   -500.275803   -500.696198
   16 Atom     -812.256911   -812.259122   -812.300625
   17 Atom       -1.846666     -1.978180     -1.670937
   18 Atom       -1.754204     -2.064734     -1.674399
   19 Atom       -1.816881     -2.016623     -1.663118
   20 Atom       -1.781808     -2.032043     -1.683417
   21 Atom       -1.754363     -1.933767     -1.730100
   22 Atom       -1.810866     -1.962069     -1.677884
   23 Atom       -1.809901     -1.899911     -1.739973
   24 Atom       -1.755311     -1.974117     -1.687693
   25 Atom       -1.722544     -1.802749     -1.981330
   26 Atom       -1.722537     -2.091046     -1.694181
   27 Atom       -1.714638     -1.797800     -1.973952
   28 Atom       -1.712628     -2.081928     -1.691864
   29 Atom       -1.716527     -1.801306     -1.954883
   30 Atom       -1.713912     -2.068990     -1.690057
   31 Atom       -2.009241     -1.543491     -1.565539
   32 Atom       -1.565591     -1.685089     -1.903642
   33 Atom       -1.564303     -2.022360     -1.568016
 -----------------------------------------------------
 -----------------------------------------------------
    Center         ---- Electric Field Gradient ----
                     XY            XZ            YZ
 -----------------------------------------------------
    1 Atom        0.093028      0.310692      0.070446
    2 Atom       -0.096786      0.067484      0.045929
    3 Atom        0.009587      0.057804      0.066167
    4 Atom       -0.021078      0.034249      0.033403
    5 Atom       -0.013987      0.086215      0.063187
    6 Atom        0.080792      0.093247      0.073654
    7 Atom        0.051004      0.118917     -0.264316
    8 Atom        0.008303      0.087993     -0.194163
    9 Atom        0.195821      0.018304     -0.067068
   10 Atom       -0.047716     -0.110264      0.192103
   11 Atom       -0.114662      0.165743     -0.111474
   12 Atom        0.057854      0.057261     -0.193123
   13 Atom       -0.028419     -0.062778     -0.070052
   14 Atom        0.002803      0.010387     -0.047139
   15 Atom        0.138692      0.324274     -0.222751
   16 Atom        0.016381      0.037971     -0.021937
   17 Atom        0.214002     -0.000401     -0.004937
   18 Atom       -0.159783     -0.032308     -0.074357
   19 Atom        0.207881      0.002227     -0.014544
   20 Atom       -0.177867     -0.036123     -0.066404
   21 Atom        0.156650     -0.091081      0.162264
   22 Atom       -0.196880      0.051961      0.095922
   23 Atom        0.169713     -0.112013      0.151807
   24 Atom       -0.172992      0.058847      0.125227
   25 Atom        0.042224     -0.070330      0.192968
   26 Atom       -0.079299     -0.017064     -0.077015
   27 Atom        0.054256     -0.074814      0.187905
   28 Atom       -0.087791     -0.010216     -0.073706
   29 Atom        0.072833     -0.082670      0.182951
   30 Atom       -0.106088     -0.002008     -0.062669
   31 Atom       -0.049782     -0.109010     -0.012629
   32 Atom        0.048240     -0.074308      0.219392
   33 Atom       -0.083653     -0.014672     -0.093955
 -----------------------------------------------------
 -----------------------------------------------------
    Center         ---- Electric Field Gradient ----
                   ----       Eigenvalues       ----
 -----------------------------------------------------
    1 Atom     -815.721793   -815.106045   -813.575938
    2 Atom     -501.452156   -500.972864   -500.787893
    3 Atom     -501.310755   -500.873257   -500.782082
    4 Atom     -501.050808   -500.799965   -500.561626
    5 Atom     -501.304289   -500.871454   -500.779414
    6 Atom     -501.448747   -500.970636   -500.787243
    7 Atom     -501.714737   -500.960593   -500.922778
    8 Atom     -501.280932   -500.823709   -500.739670
    9 Atom     -501.281500   -501.104153   -500.651387
   10 Atom     -812.690165   -812.567759   -812.015516
   11 Atom     -501.282114   -501.105167   -500.651844
   12 Atom     -501.282023   -500.824935   -500.739933
   13 Atom     -500.759693   -500.271757   -500.089857
   14 Atom     -500.420733   -500.307193   -500.179414
   15 Atom     -501.033647   -500.276951   -500.179723
   16 Atom     -812.332649   -812.249677   -812.234332
   17 Atom       -2.136329     -1.689128     -1.670325
   18 Atom       -2.146194     -1.686698     -1.660445
   19 Atom       -2.147755     -1.687510     -1.661357
   20 Atom       -2.136985     -1.689571     -1.670713
   21 Atom       -2.114616     -1.663775     -1.639839
   22 Atom       -2.123775     -1.679944     -1.647100
   23 Atom       -2.123305     -1.679677     -1.646804
   24 Atom       -2.114126     -1.663486     -1.639508
   25 Atom       -2.121518     -1.705882     -1.679223
   26 Atom       -2.121930     -1.706247     -1.679588
   27 Atom       -2.114672     -1.695172     -1.676546
   28 Atom       -2.114739     -1.695150     -1.676531
   29 Atom       -2.107063     -1.697511     -1.668142
   30 Atom       -2.107187     -1.697572     -1.668201
   31 Atom       -2.039888     -1.540633     -1.537750
   32 Atom       -2.055480     -1.551299     -1.547543
   33 Atom       -2.055694     -1.551377     -1.547608
 -----------------------------------------------------
 -----------------------------------------------------
    Center         ---- Electric Field Gradient ----
                       ( tensor representation )
                   3XX-RR        3YY-RR        3ZZ-RR
 -----------------------------------------------------
    1 Atom        1.172216     -0.303037     -0.869179
    2 Atom        0.202537      0.164688     -0.367225
    3 Atom        0.196833      0.108948     -0.305781
    4 Atom        0.000470      0.238731     -0.239201
    5 Atom        0.190674      0.103819     -0.294493
    6 Atom        0.169314      0.188267     -0.357581
    7 Atom        0.254853      0.126035     -0.380888
    8 Atom        0.120080      0.108842     -0.228922
    9 Atom        0.260897     -0.023901     -0.236996
   10 Atom       -0.243563     -0.060848      0.304411
   11 Atom        0.257192     -0.073640     -0.183552
   12 Atom        0.122835      0.111105     -0.233940
   13 Atom       -0.375990      0.253511      0.122479
   14 Atom       -0.117270      0.102494      0.014775
   15 Atom       -0.021546      0.220970     -0.199424
   16 Atom        0.015309      0.013097     -0.028405
   17 Atom       -0.014738     -0.146253      0.160991
   18 Atom        0.076909     -0.233622      0.156713
   19 Atom        0.015326     -0.184416      0.169089
   20 Atom        0.050615     -0.199620      0.149006
   21 Atom        0.051714     -0.127690      0.075977
   22 Atom        0.006073     -0.145129      0.139056
   23 Atom        0.006694     -0.083316      0.076622
   24 Atom        0.050395     -0.168410      0.118014
   25 Atom        0.112997      0.032792     -0.145789
   26 Atom        0.113384     -0.255124      0.141740
   27 Atom        0.114158      0.030997     -0.145155
   28 Atom        0.116178     -0.253121      0.136943
   29 Atom        0.107712      0.022933     -0.130644
   30 Atom        0.110408     -0.244670      0.134263
   31 Atom       -0.303151      0.162599      0.140551
   32 Atom        0.152516      0.033018     -0.185534
   33 Atom        0.153923     -0.304133      0.150210
 -----------------------------------------------------
 -----------------------------------------------------
    Center         ---- Electric Field Gradient ----
                       ( tensor representation )
                   ----       Eigenvalues       ----
 -----------------------------------------------------
    1 Atom       -0.920534     -0.304786      1.225320
    2 Atom       -0.381185      0.098107      0.283078
    3 Atom       -0.322057      0.115441      0.206616
    4 Atom       -0.246675      0.004168      0.242507
    5 Atom       -0.319237      0.113598      0.205638
    6 Atom       -0.379871      0.098239      0.281632
    7 Atom       -0.515368      0.238776      0.276592
    8 Atom       -0.332828      0.124395      0.208434
    9 Atom       -0.269153     -0.091806      0.360960
   10 Atom       -0.265685     -0.143278      0.408964
   11 Atom       -0.269072     -0.092126      0.361198
   12 Atom       -0.333059      0.124029      0.209031
   13 Atom       -0.385924      0.102012      0.283912
   14 Atom       -0.118286     -0.004746      0.123032
   15 Atom       -0.536874      0.219823      0.317051
   16 Atom       -0.060430      0.022542      0.037888
   17 Atom       -0.304402      0.142799      0.161603
   18 Atom       -0.315082      0.144414      0.170668
   19 Atom       -0.315548      0.144698      0.170850
   20 Atom       -0.304562      0.142852      0.161710
   21 Atom       -0.308539      0.142302      0.166238
   22 Atom       -0.306835      0.136995      0.169840
   23 Atom       -0.306710      0.136919      0.169792
   24 Atom       -0.308419      0.142220      0.166199
   25 Atom       -0.285977      0.129659      0.156318
   26 Atom       -0.286008      0.129674      0.156334
   27 Atom       -0.285876      0.133625      0.152251
   28 Atom       -0.285933      0.133657      0.152276
   29 Atom       -0.282824      0.126728      0.156097
   30 Atom       -0.282867      0.126748      0.156119
   31 Atom       -0.333798      0.165458      0.168340
   32 Atom       -0.337373      0.166809      0.170564
   33 Atom       -0.337468      0.166849      0.170619
 -----------------------------------------------------

 Test job not archived.
 1|1|UNPC-NP-ALMACH|FOpt|RB3LYP|6-311++G(d,p)|C13H17N3(2+)|HERA|15-Aug-
 2018|0||# RB3LYP/6-311++G** Opt Test prop=EFG||C13N3H17||2,1|N,-5.5652
 563336,-1.7455804704,0.6402425204|C,-4.5909151019,-2.2668089447,1.3890
 741202|C,-3.3171671235,-1.7118307909,1.4818877586|C,-3.0410532053,-0.5
 327466908,0.7712553661|C,-4.0718183098,0.0193250782,-0.0060974517|C,-5
 .3032486758,-0.6294612069,-0.0435692254|C,-1.7212006113,0.1027868684,0
 .8413400205|C,-0.5472985601,-0.6423720068,1.0883836196|C,0.6762382232,
 -0.0241286644,1.1643788753|N,0.7989270494,1.3210778859,1.0003882889|C,
 -0.3114505521,2.0712488453,0.7632475603|C,-1.5551700164,1.4957150636,0
 .6776724527|C,2.1288386124,1.9673089597,1.1035706213|C,2.8551120602,2.
 0486435115,-0.2562802115|C,4.2233235018,2.7164295618,-0.0858772498|N,4
 .9691571173,2.8124056682,-1.4116294514|H,-4.8377706405,-3.1672550415,1
 .9421873346|H,-2.5842157486,-2.1744658382,2.1315728926|H,-3.923451235,
 0.9089515751,-0.6060707044|H,-6.1123395773,-0.2349119278,-0.6497074185
 |H,-0.5861149519,-1.7164215439,1.2101512938|H,1.5871956094,-0.57388007
 15,1.3621476829|H,-0.1647690394,3.1397397656,0.6734251188|H,-2.4081034
 51,2.1424010679,0.521794486|H,1.9748326483,2.9616400098,1.5253205618|H
 ,2.7131511367,1.3951148512,1.8256690151|H,2.9760515146,1.039677662,-0.
 6642266492|H,2.2421830623,2.6186815893,-0.9622570403|H,4.1408019953,3.
 7389196339,0.2856892525|H,4.8760358835,2.155650161,0.5848093698|H,5.88
 36610178,3.263279836,-1.2869506984|H,5.1425724444,1.8886429526,-1.8239
 415101|H,4.4526852571,3.3654796507,-2.1049606012||Version=EM64W-G09Rev
 D.01|State=1-A|HF=-669.4773367|RMSD=5.176e-009|RMSF=5.798e-006|Dipole=
 10.2904267,4.3907499,-2.28281|Quadrupole=67.9291689,-25.0078424,-42.92
 13266,46.7071375,-30.5824879,-18.018749|PG=C01 [X(C13H17N3)]||@


 SCIENCE AND PEACE WILL TRIUMPH OVER IGNORANCE AND WAR

                          -- PASTEUR
 Job cpu time:       0 days  2 hours  3 minutes 36.0 seconds.
 File lengths (MBytes):  RWF=    116 Int=      0 D2E=      0 Chk=     20 Scr=      1
 Normal termination of Gaussian 09 at Wed Aug 15 22:51:57 2018.
