 Entering Link 1 = C:\G09W\l1.exe PID=      7736.
  
 Copyright (c) 1988,1990,1992,1993,1995,1998,2003,2009,2013,
            Gaussian, Inc.  All Rights Reserved.
  
 This is part of the Gaussian(R) 09 program.  It is based on
 the Gaussian(R) 03 system (copyright 2003, Gaussian, Inc.),
 the Gaussian(R) 98 system (copyright 1998, Gaussian, Inc.),
 the Gaussian(R) 94 system (copyright 1995, Gaussian, Inc.),
 the Gaussian 92(TM) system (copyright 1992, Gaussian, Inc.),
 the Gaussian 90(TM) system (copyright 1990, Gaussian, Inc.),
 the Gaussian 88(TM) system (copyright 1988, Gaussian, Inc.),
 the Gaussian 86(TM) system (copyright 1986, Carnegie Mellon
 University), and the Gaussian 82(TM) system (copyright 1983,
 Carnegie Mellon University). Gaussian is a federally registered
 trademark of Gaussian, Inc.
  
 This software contains proprietary and confidential information,
 including trade secrets, belonging to Gaussian, Inc.
  
 This software is provided under written license and may be
 used, copied, transmitted, or stored only in accord with that
 written license.
  
 The following legend is applicable only to US Government
 contracts under FAR:
  
                    RESTRICTED RIGHTS LEGEND
  
 Use, reproduction and disclosure by the US Government is
 subject to restrictions as set forth in subparagraphs (a)
 and (c) of the Commercial Computer Software - Restricted
 Rights clause in FAR 52.227-19.
  
 Gaussian, Inc.
 340 Quinnipiac St., Bldg. 40, Wallingford CT 06492
  
  
 ---------------------------------------------------------------
 Warning -- This program may not be used in any manner that
 competes with the business of Gaussian, Inc. or will provide
 assistance to any competitor of Gaussian, Inc.  The licensee
 of this program is prohibited from giving any competitor of
 Gaussian, Inc. access to this program.  By using this program,
 the user acknowledges that Gaussian, Inc. is engaged in the
 business of creating and licensing software in the field of
 computational chemistry and represents and warrants to the
 licensee that it is not a competitor of Gaussian, Inc. and that
 it will not use this program in any manner prohibited above.
 ---------------------------------------------------------------
  

 Cite this work as:
 Gaussian 09, Revision D.01,
 M. J. Frisch, G. W. Trucks, H. B. Schlegel, G. E. Scuseria, 
 M. A. Robb, J. R. Cheeseman, G. Scalmani, V. Barone, B. Mennucci, 
 G. A. Petersson, H. Nakatsuji, M. Caricato, X. Li, H. P. Hratchian, 
 A. F. Izmaylov, J. Bloino, G. Zheng, J. L. Sonnenberg, M. Hada, 
 M. Ehara, K. Toyota, R. Fukuda, J. Hasegawa, M. Ishida, T. Nakajima, 
 Y. Honda, O. Kitao, H. Nakai, T. Vreven, J. A. Montgomery, Jr., 
 J. E. Peralta, F. Ogliaro, M. Bearpark, J. J. Heyd, E. Brothers, 
 K. N. Kudin, V. N. Staroverov, T. Keith, R. Kobayashi, J. Normand, 
 K. Raghavachari, A. Rendell, J. C. Burant, S. S. Iyengar, J. Tomasi, 
 M. Cossi, N. Rega, J. M. Millam, M. Klene, J. E. Knox, J. B. Cross, 
 V. Bakken, C. Adamo, J. Jaramillo, R. Gomperts, R. E. Stratmann, 
 O. Yazyev, A. J. Austin, R. Cammi, C. Pomelli, J. W. Ochterski, 
 R. L. Martin, K. Morokuma, V. G. Zakrzewski, G. A. Voth, 
 P. Salvador, J. J. Dannenberg, S. Dapprich, A. D. Daniels, 
 O. Farkas, J. B. Foresman, J. V. Ortiz, J. Cioslowski, 
 and D. J. Fox, Gaussian, Inc., Wallingford CT, 2013.
 
 ******************************************
 Gaussian 09:  EM64W-G09RevD.01 13-Apr-2013
                07-Sep-2018 
 ******************************************
 %Chk=Anth_269.chk
 %Mem=64GB
 %NProcShared=20
 Will use up to   20 processors via shared memory.
 -------------------------------------
 # RB3LYP/6-311++G** Opt Test prop=EFG
 -------------------------------------
 1/14=-1,18=20,19=15,26=3,38=1/1,3;
 2/9=110,12=2,17=6,18=5,40=1/2;
 3/5=4,6=6,7=1111,11=2,16=1,25=1,30=1,71=1,74=-5,116=1/1,2,3;
 4//1;
 5/5=2,38=5/2;
 6/7=2,8=2,9=2,10=2,14=1,28=1/1,2;
 7//1,2,3,16;
 1/14=-1,18=20,19=15,26=3/3(2);
 2/9=110/2;
 99//99;
 2/9=110/2;
 3/5=4,6=6,7=1111,11=2,16=1,25=1,30=1,71=1,74=-5,116=1/1,2,3;
 4/5=5,16=3,69=1/1;
 5/5=2,38=5/2;
 7//1,2,3,16;
 1/14=-1,18=20,19=15,26=3/3(-5);
 2/9=110/2;
 6/7=2,8=2,9=2,10=2,14=1,19=2,28=1/1,2;
 99/9=1/99;
 --------
 C16N4H26
 --------
 Symbolic Z-matrix:
 Charge =  4 Multiplicity = 1
 N                     2.43384  -2.2932   -1.32859 
 C                     1.26059  -2.27551  -1.90147 
 C                     0.19322  -1.5943   -1.44541 
 C                     0.23067  -0.84979  -0.31657 
 C                     1.45334  -0.86431   0.26104 
 C                     2.48587  -1.56421  -0.24571 
 C                    -0.84241  -0.17297   0.18543 
 C                    -0.82474   0.54284   1.33358 
 C                    -1.90865   1.18707   1.80834 
 N                    -3.07771   1.20003   1.227 
 C                    -3.10245   0.51585   0.11426 
 C                    -2.05669  -0.14929  -0.4082 
 C                    -4.32817   1.92533   1.75357 
 C                    -4.3793    2.51866   3.1842 
 C                    -5.76002   3.14538   3.49912 
 N                    -5.79933   3.72164   4.89756 
 C                     3.60043  -3.11817  -1.85186 
 C                     4.2392   -2.54526  -3.12748 
 C                     5.3997   -3.43041  -3.60954 
 N                     5.94902  -2.81599  -4.86661 
 H                     1.15787  -2.87996  -2.81916 
 H                    -0.71455  -1.70619  -2.05623 
 H                     1.67813  -0.31152   1.18527 
 H                     3.45323  -1.53991   0.2847 
 H                     0.07728   0.63713   1.95643 
 H                    -1.81997   1.74715   2.75348 
 H                    -4.06656   0.49461  -0.42314 
 H                    -2.27012  -0.66925  -1.35358 
 H                    -4.54644   2.75522   1.0384 
 H                    -5.18171   1.20835   1.67605 
 H                    -4.16417   1.7123    3.92502 
 H                    -3.59261   3.30245   3.29258 
 H                    -5.98519   3.96343   2.7765 
 H                    -6.56152   2.37544   3.41645 
 H                    -6.74205   4.13523   5.07714 
 H                    -5.61196   2.96228   5.59058 
 H                    -5.06851   4.46317   4.98723 
 H                     4.38295  -3.21584  -1.06332 
 H                     3.23878  -4.15483  -2.05137 
 H                     3.46833  -2.47048  -3.93075 
 H                     4.60963  -1.51314  -2.92003 
 H                     6.2096   -3.48199  -2.84647 
 H                     5.04903  -4.46317  -3.83625 
 H                     6.74205  -3.39702  -5.22075 
 H                     5.19664  -2.77367  -5.59058 
 H                     6.28868  -1.84927  -4.66148 
 

 GradGradGradGradGradGradGradGradGradGradGradGradGradGradGradGradGradGrad
 Berny optimization.
 Initialization pass.
                           ----------------------------
                           !    Initial Parameters    !
                           ! (Angstroms and Degrees)  !
 --------------------------                            --------------------------
 ! Name  Definition              Value          Derivative Info.                !
 --------------------------------------------------------------------------------
 ! R1    R(1,2)                  1.3058         estimate D2E/DX2                !
 ! R2    R(1,6)                  1.3064         estimate D2E/DX2                !
 ! R3    R(1,17)                 1.5216         estimate D2E/DX2                !
 ! R4    R(2,3)                  1.3459         estimate D2E/DX2                !
 ! R5    R(2,21)                 1.1037         estimate D2E/DX2                !
 ! R6    R(3,4)                  1.3528         estimate D2E/DX2                !
 ! R7    R(3,22)                 1.0998         estimate D2E/DX2                !
 ! R8    R(4,5)                  1.3523         estimate D2E/DX2                !
 ! R9    R(4,7)                  1.3644         estimate D2E/DX2                !
 ! R10   R(5,6)                  1.3464         estimate D2E/DX2                !
 ! R11   R(5,23)                 1.1001         estimate D2E/DX2                !
 ! R12   R(6,24)                 1.1035         estimate D2E/DX2                !
 ! R13   R(7,8)                  1.3531         estimate D2E/DX2                !
 ! R14   R(7,12)                 1.3518         estimate D2E/DX2                !
 ! R15   R(8,9)                  1.3473         estimate D2E/DX2                !
 ! R16   R(8,25)                 1.1002         estimate D2E/DX2                !
 ! R17   R(9,10)                 1.3057         estimate D2E/DX2                !
 ! R18   R(9,26)                 1.1022         estimate D2E/DX2                !
 ! R19   R(10,11)                1.3065         estimate D2E/DX2                !
 ! R20   R(10,13)                1.5385         estimate D2E/DX2                !
 ! R21   R(11,12)                1.345          estimate D2E/DX2                !
 ! R22   R(11,27)                1.104          estimate D2E/DX2                !
 ! R23   R(12,28)                1.0998         estimate D2E/DX2                !
 ! R24   R(13,14)                1.5496         estimate D2E/DX2                !
 ! R25   R(13,29)                1.1171         estimate D2E/DX2                !
 ! R26   R(13,30)                1.1174         estimate D2E/DX2                !
 ! R27   R(14,15)                1.5487         estimate D2E/DX2                !
 ! R28   R(14,31)                1.1159         estimate D2E/DX2                !
 ! R29   R(14,32)                1.1158         estimate D2E/DX2                !
 ! R30   R(15,16)                1.513          estimate D2E/DX2                !
 ! R31   R(15,33)                1.1145         estimate D2E/DX2                !
 ! R32   R(15,34)                1.1145         estimate D2E/DX2                !
 ! R33   R(16,35)                1.045          estimate D2E/DX2                !
 ! R34   R(16,36)                1.045          estimate D2E/DX2                !
 ! R35   R(16,37)                1.045          estimate D2E/DX2                !
 ! R36   R(17,18)                1.5373         estimate D2E/DX2                !
 ! R37   R(17,38)                1.1152         estimate D2E/DX2                !
 ! R38   R(17,39)                1.1159         estimate D2E/DX2                !
 ! R39   R(18,19)                1.5371         estimate D2E/DX2                !
 ! R40   R(18,40)                1.1158         estimate D2E/DX2                !
 ! R41   R(18,41)                1.116          estimate D2E/DX2                !
 ! R42   R(19,20)                1.5032         estimate D2E/DX2                !
 ! R43   R(19,42)                1.1139         estimate D2E/DX2                !
 ! R44   R(19,43)                1.114          estimate D2E/DX2                !
 ! R45   R(20,44)                1.0449         estimate D2E/DX2                !
 ! R46   R(20,45)                1.045          estimate D2E/DX2                !
 ! R47   R(20,46)                1.045          estimate D2E/DX2                !
 ! A1    A(2,1,6)              113.0714         estimate D2E/DX2                !
 ! A2    A(2,1,17)             123.048          estimate D2E/DX2                !
 ! A3    A(6,1,17)             123.8516         estimate D2E/DX2                !
 ! A4    A(1,2,3)              124.8052         estimate D2E/DX2                !
 ! A5    A(1,2,21)             116.1686         estimate D2E/DX2                !
 ! A6    A(3,2,21)             119.0225         estimate D2E/DX2                !
 ! A7    A(2,3,4)              122.6413         estimate D2E/DX2                !
 ! A8    A(2,3,22)             114.5128         estimate D2E/DX2                !
 ! A9    A(4,3,22)             122.8386         estimate D2E/DX2                !
 ! A10   A(3,4,5)              112.0579         estimate D2E/DX2                !
 ! A11   A(3,4,7)              123.9357         estimate D2E/DX2                !
 ! A12   A(5,4,7)              124.0043         estimate D2E/DX2                !
 ! A13   A(4,5,6)              122.5603         estimate D2E/DX2                !
 ! A14   A(4,5,23)             122.5591         estimate D2E/DX2                !
 ! A15   A(6,5,23)             114.8789         estimate D2E/DX2                !
 ! A16   A(1,6,5)              124.8548         estimate D2E/DX2                !
 ! A17   A(1,6,24)             116.4623         estimate D2E/DX2                !
 ! A18   A(5,6,24)             118.6803         estimate D2E/DX2                !
 ! A19   A(4,7,8)              124.3564         estimate D2E/DX2                !
 ! A20   A(4,7,12)             123.6128         estimate D2E/DX2                !
 ! A21   A(8,7,12)             112.0292         estimate D2E/DX2                !
 ! A22   A(7,8,9)              122.781          estimate D2E/DX2                !
 ! A23   A(7,8,25)             122.439          estimate D2E/DX2                !
 ! A24   A(9,8,25)             114.7785         estimate D2E/DX2                !
 ! A25   A(8,9,10)             124.6227         estimate D2E/DX2                !
 ! A26   A(8,9,26)             118.7115         estimate D2E/DX2                !
 ! A27   A(10,9,26)            116.6658         estimate D2E/DX2                !
 ! A28   A(9,10,11)            113.0144         estimate D2E/DX2                !
 ! A29   A(9,10,13)            125.4521         estimate D2E/DX2                !
 ! A30   A(11,10,13)           121.5334         estimate D2E/DX2                !
 ! A31   A(10,11,12)           125.1067         estimate D2E/DX2                !
 ! A32   A(10,11,27)           116.1809         estimate D2E/DX2                !
 ! A33   A(12,11,27)           118.7124         estimate D2E/DX2                !
 ! A34   A(7,12,11)            122.445          estimate D2E/DX2                !
 ! A35   A(7,12,28)            122.9213         estimate D2E/DX2                !
 ! A36   A(11,12,28)           114.6337         estimate D2E/DX2                !
 ! A37   A(10,13,14)           121.5536         estimate D2E/DX2                !
 ! A38   A(10,13,29)           106.8536         estimate D2E/DX2                !
 ! A39   A(10,13,30)           107.1339         estimate D2E/DX2                !
 ! A40   A(14,13,29)           107.4674         estimate D2E/DX2                !
 ! A41   A(14,13,30)           106.5305         estimate D2E/DX2                !
 ! A42   A(29,13,30)           106.4406         estimate D2E/DX2                !
 ! A43   A(13,14,15)           111.8449         estimate D2E/DX2                !
 ! A44   A(13,14,31)           109.2597         estimate D2E/DX2                !
 ! A45   A(13,14,32)           109.5957         estimate D2E/DX2                !
 ! A46   A(15,14,31)           109.2261         estimate D2E/DX2                !
 ! A47   A(15,14,32)           108.9398         estimate D2E/DX2                !
 ! A48   A(31,14,32)           107.8897         estimate D2E/DX2                !
 ! A49   A(14,15,16)           111.4226         estimate D2E/DX2                !
 ! A50   A(14,15,33)           110.2017         estimate D2E/DX2                !
 ! A51   A(14,15,34)           110.2749         estimate D2E/DX2                !
 ! A52   A(16,15,33)           108.3292         estimate D2E/DX2                !
 ! A53   A(16,15,34)           108.2395         estimate D2E/DX2                !
 ! A54   A(33,15,34)           108.2825         estimate D2E/DX2                !
 ! A55   A(15,16,35)           109.452          estimate D2E/DX2                !
 ! A56   A(15,16,36)           109.3626         estimate D2E/DX2                !
 ! A57   A(15,16,37)           109.3541         estimate D2E/DX2                !
 ! A58   A(35,16,36)           109.596          estimate D2E/DX2                !
 ! A59   A(35,16,37)           109.5912         estimate D2E/DX2                !
 ! A60   A(36,16,37)           109.471          estimate D2E/DX2                !
 ! A61   A(1,17,18)            113.6945         estimate D2E/DX2                !
 ! A62   A(1,17,38)            110.0163         estimate D2E/DX2                !
 ! A63   A(1,17,39)            108.4614         estimate D2E/DX2                !
 ! A64   A(18,17,38)           109.1352         estimate D2E/DX2                !
 ! A65   A(18,17,39)           109.4208         estimate D2E/DX2                !
 ! A66   A(38,17,39)           105.8107         estimate D2E/DX2                !
 ! A67   A(17,18,19)           111.0589         estimate D2E/DX2                !
 ! A68   A(17,18,40)           109.5881         estimate D2E/DX2                !
 ! A69   A(17,18,41)           109.1661         estimate D2E/DX2                !
 ! A70   A(19,18,40)           109.5374         estimate D2E/DX2                !
 ! A71   A(19,18,41)           109.8931         estimate D2E/DX2                !
 ! A72   A(40,18,41)           107.5256         estimate D2E/DX2                !
 ! A73   A(18,19,20)           107.6256         estimate D2E/DX2                !
 ! A74   A(18,19,42)           111.1469         estimate D2E/DX2                !
 ! A75   A(18,19,43)           111.1022         estimate D2E/DX2                !
 ! A76   A(20,19,42)           109.0323         estimate D2E/DX2                !
 ! A77   A(20,19,43)           108.8921         estimate D2E/DX2                !
 ! A78   A(42,19,43)           108.987          estimate D2E/DX2                !
 ! A79   A(19,20,44)           109.4799         estimate D2E/DX2                !
 ! A80   A(19,20,45)           109.4401         estimate D2E/DX2                !
 ! A81   A(19,20,46)           109.4361         estimate D2E/DX2                !
 ! A82   A(44,20,45)           109.5203         estimate D2E/DX2                !
 ! A83   A(44,20,46)           109.5262         estimate D2E/DX2                !
 ! A84   A(45,20,46)           109.4246         estimate D2E/DX2                !
 ! D1    D(6,1,2,3)             -0.3805         estimate D2E/DX2                !
 ! D2    D(6,1,2,21)          -179.6657         estimate D2E/DX2                !
 ! D3    D(17,1,2,3)           177.7316         estimate D2E/DX2                !
 ! D4    D(17,1,2,21)           -1.5537         estimate D2E/DX2                !
 ! D5    D(2,1,6,5)              0.5455         estimate D2E/DX2                !
 ! D6    D(2,1,6,24)           179.9461         estimate D2E/DX2                !
 ! D7    D(17,1,6,5)          -177.549          estimate D2E/DX2                !
 ! D8    D(17,1,6,24)            1.8517         estimate D2E/DX2                !
 ! D9    D(2,1,17,18)           73.7404         estimate D2E/DX2                !
 ! D10   D(2,1,17,38)         -163.5174         estimate D2E/DX2                !
 ! D11   D(2,1,17,39)          -48.2193         estimate D2E/DX2                !
 ! D12   D(6,1,17,18)         -108.3512         estimate D2E/DX2                !
 ! D13   D(6,1,17,38)           14.391          estimate D2E/DX2                !
 ! D14   D(6,1,17,39)          129.6891         estimate D2E/DX2                !
 ! D15   D(1,2,3,4)             -0.431          estimate D2E/DX2                !
 ! D16   D(1,2,3,22)          -179.4753         estimate D2E/DX2                !
 ! D17   D(21,2,3,4)           178.8354         estimate D2E/DX2                !
 ! D18   D(21,2,3,22)           -0.2089         estimate D2E/DX2                !
 ! D19   D(2,3,4,5)              1.0016         estimate D2E/DX2                !
 ! D20   D(2,3,4,7)           -178.4976         estimate D2E/DX2                !
 ! D21   D(22,3,4,5)           179.9666         estimate D2E/DX2                !
 ! D22   D(22,3,4,7)             0.4674         estimate D2E/DX2                !
 ! D23   D(3,4,5,6)             -0.8448         estimate D2E/DX2                !
 ! D24   D(3,4,5,23)           179.6522         estimate D2E/DX2                !
 ! D25   D(7,4,5,6)            178.654          estimate D2E/DX2                !
 ! D26   D(7,4,5,23)            -0.849          estimate D2E/DX2                !
 ! D27   D(3,4,7,8)            178.0259         estimate D2E/DX2                !
 ! D28   D(3,4,7,12)            -1.48           estimate D2E/DX2                !
 ! D29   D(5,4,7,8)             -1.4143         estimate D2E/DX2                !
 ! D30   D(5,4,7,12)           179.0798         estimate D2E/DX2                !
 ! D31   D(4,5,6,1)              0.0904         estimate D2E/DX2                !
 ! D32   D(4,5,6,24)          -179.2981         estimate D2E/DX2                !
 ! D33   D(23,5,6,1)           179.6286         estimate D2E/DX2                !
 ! D34   D(23,5,6,24)            0.2402         estimate D2E/DX2                !
 ! D35   D(4,7,8,9)           -179.2125         estimate D2E/DX2                !
 ! D36   D(4,7,8,25)             0.3218         estimate D2E/DX2                !
 ! D37   D(12,7,8,9)             0.3436         estimate D2E/DX2                !
 ! D38   D(12,7,8,25)          179.8779         estimate D2E/DX2                !
 ! D39   D(4,7,12,11)          179.3574         estimate D2E/DX2                !
 ! D40   D(4,7,12,28)           -0.6655         estimate D2E/DX2                !
 ! D41   D(8,7,12,11)           -0.2025         estimate D2E/DX2                !
 ! D42   D(8,7,12,28)          179.7746         estimate D2E/DX2                !
 ! D43   D(7,8,9,10)            -0.2259         estimate D2E/DX2                !
 ! D44   D(7,8,9,26)           179.7334         estimate D2E/DX2                !
 ! D45   D(25,8,9,10)         -179.793          estimate D2E/DX2                !
 ! D46   D(25,8,9,26)            0.1662         estimate D2E/DX2                !
 ! D47   D(8,9,10,11)           -0.0705         estimate D2E/DX2                !
 ! D48   D(8,9,10,13)          179.8233         estimate D2E/DX2                !
 ! D49   D(26,9,10,11)         179.9695         estimate D2E/DX2                !
 ! D50   D(26,9,10,13)          -0.1367         estimate D2E/DX2                !
 ! D51   D(9,10,11,12)           0.2193         estimate D2E/DX2                !
 ! D52   D(9,10,11,27)        -179.8045         estimate D2E/DX2                !
 ! D53   D(13,10,11,12)       -179.6792         estimate D2E/DX2                !
 ! D54   D(13,10,11,27)          0.297          estimate D2E/DX2                !
 ! D55   D(9,10,13,14)         -11.0783         estimate D2E/DX2                !
 ! D56   D(9,10,13,29)         112.5691         estimate D2E/DX2                !
 ! D57   D(9,10,13,30)        -133.6745         estimate D2E/DX2                !
 ! D58   D(11,10,13,14)        168.807          estimate D2E/DX2                !
 ! D59   D(11,10,13,29)        -67.5456         estimate D2E/DX2                !
 ! D60   D(11,10,13,30)         46.2108         estimate D2E/DX2                !
 ! D61   D(10,11,12,7)          -0.0807         estimate D2E/DX2                !
 ! D62   D(10,11,12,28)        179.9405         estimate D2E/DX2                !
 ! D63   D(27,11,12,7)         179.9437         estimate D2E/DX2                !
 ! D64   D(27,11,12,28)         -0.0352         estimate D2E/DX2                !
 ! D65   D(10,13,14,15)       -177.6649         estimate D2E/DX2                !
 ! D66   D(10,13,14,31)        -56.609          estimate D2E/DX2                !
 ! D67   D(10,13,14,32)         61.4116         estimate D2E/DX2                !
 ! D68   D(29,13,14,15)         58.9741         estimate D2E/DX2                !
 ! D69   D(29,13,14,31)       -179.9701         estimate D2E/DX2                !
 ! D70   D(29,13,14,32)        -61.9495         estimate D2E/DX2                !
 ! D71   D(30,13,14,15)        -54.7847         estimate D2E/DX2                !
 ! D72   D(30,13,14,31)         66.2711         estimate D2E/DX2                !
 ! D73   D(30,13,14,32)       -175.7083         estimate D2E/DX2                !
 ! D74   D(13,14,15,16)       -179.9952         estimate D2E/DX2                !
 ! D75   D(13,14,15,33)        -59.7085         estimate D2E/DX2                !
 ! D76   D(13,14,15,34)         59.7818         estimate D2E/DX2                !
 ! D77   D(31,14,15,16)         58.9295         estimate D2E/DX2                !
 ! D78   D(31,14,15,33)        179.2163         estimate D2E/DX2                !
 ! D79   D(31,14,15,34)        -61.2934         estimate D2E/DX2                !
 ! D80   D(32,14,15,16)        -58.6918         estimate D2E/DX2                !
 ! D81   D(32,14,15,33)         61.595          estimate D2E/DX2                !
 ! D82   D(32,14,15,34)       -178.9147         estimate D2E/DX2                !
 ! D83   D(14,15,16,35)       -179.9963         estimate D2E/DX2                !
 ! D84   D(14,15,16,36)        -59.9218         estimate D2E/DX2                !
 ! D85   D(14,15,16,37)         59.9403         estimate D2E/DX2                !
 ! D86   D(33,15,16,35)         58.6205         estimate D2E/DX2                !
 ! D87   D(33,15,16,36)        178.695          estimate D2E/DX2                !
 ! D88   D(33,15,16,37)        -61.4429         estimate D2E/DX2                !
 ! D89   D(34,15,16,35)        -58.5813         estimate D2E/DX2                !
 ! D90   D(34,15,16,36)         61.4933         estimate D2E/DX2                !
 ! D91   D(34,15,16,37)       -178.6447         estimate D2E/DX2                !
 ! D92   D(1,17,18,19)        -179.4702         estimate D2E/DX2                !
 ! D93   D(1,17,18,40)         -58.3131         estimate D2E/DX2                !
 ! D94   D(1,17,18,41)          59.2078         estimate D2E/DX2                !
 ! D95   D(38,17,18,19)         57.3048         estimate D2E/DX2                !
 ! D96   D(38,17,18,40)        178.462          estimate D2E/DX2                !
 ! D97   D(38,17,18,41)        -64.0172         estimate D2E/DX2                !
 ! D98   D(39,17,18,19)        -58.0437         estimate D2E/DX2                !
 ! D99   D(39,17,18,40)         63.1135         estimate D2E/DX2                !
 ! D100  D(39,17,18,41)       -179.3657         estimate D2E/DX2                !
 ! D101  D(17,18,19,20)        179.0168         estimate D2E/DX2                !
 ! D102  D(17,18,19,42)        -61.6583         estimate D2E/DX2                !
 ! D103  D(17,18,19,43)         59.8886         estimate D2E/DX2                !
 ! D104  D(40,18,19,20)         57.8298         estimate D2E/DX2                !
 ! D105  D(40,18,19,42)        177.1548         estimate D2E/DX2                !
 ! D106  D(40,18,19,43)        -61.2983         estimate D2E/DX2                !
 ! D107  D(41,18,19,20)        -60.0886         estimate D2E/DX2                !
 ! D108  D(41,18,19,42)         59.2364         estimate D2E/DX2                !
 ! D109  D(41,18,19,43)       -179.2167         estimate D2E/DX2                !
 ! D110  D(18,19,20,44)       -179.9688         estimate D2E/DX2                !
 ! D111  D(18,19,20,45)        -59.9224         estimate D2E/DX2                !
 ! D112  D(18,19,20,46)         59.9801         estimate D2E/DX2                !
 ! D113  D(42,19,20,44)         59.3663         estimate D2E/DX2                !
 ! D114  D(42,19,20,45)        179.4127         estimate D2E/DX2                !
 ! D115  D(42,19,20,46)        -60.6848         estimate D2E/DX2                !
 ! D116  D(43,19,20,44)        -59.4378         estimate D2E/DX2                !
 ! D117  D(43,19,20,45)         60.6086         estimate D2E/DX2                !
 ! D118  D(43,19,20,46)       -179.489          estimate D2E/DX2                !
 --------------------------------------------------------------------------------
 Trust Radius=3.00D-01 FncErr=1.00D-07 GrdErr=1.00D-06
 Number of steps in this run=    259 maximum allowed number of steps=    276.
 GradGradGradGradGradGradGradGradGradGradGradGradGradGradGradGradGradGrad

                          Input orientation:                          
 ---------------------------------------------------------------------
 Center     Atomic      Atomic             Coordinates (Angstroms)
 Number     Number       Type             X           Y           Z
 ---------------------------------------------------------------------
      1          7           0        2.433842   -2.293200   -1.328589
      2          6           0        1.260593   -2.275508   -1.901469
      3          6           0        0.193218   -1.594296   -1.445414
      4          6           0        0.230668   -0.849791   -0.316572
      5          6           0        1.453340   -0.864309    0.261037
      6          6           0        2.485867   -1.564211   -0.245707
      7          6           0       -0.842411   -0.172969    0.185432
      8          6           0       -0.824737    0.542844    1.333581
      9          6           0       -1.908650    1.187065    1.808340
     10          7           0       -3.077709    1.200029    1.227003
     11          6           0       -3.102447    0.515851    0.114260
     12          6           0       -2.056691   -0.149290   -0.408202
     13          6           0       -4.328172    1.925333    1.753572
     14          6           0       -4.379296    2.518663    3.184199
     15          6           0       -5.760019    3.145383    3.499117
     16          7           0       -5.799334    3.721636    4.897557
     17          6           0        3.600434   -3.118166   -1.851863
     18          6           0        4.239200   -2.545264   -3.127482
     19          6           0        5.399699   -3.430411   -3.609537
     20          7           0        5.949015   -2.815988   -4.866614
     21          1           0        1.157868   -2.879959   -2.819160
     22          1           0       -0.714552   -1.706188   -2.056230
     23          1           0        1.678126   -0.311516    1.185266
     24          1           0        3.453234   -1.539908    0.284701
     25          1           0        0.077280    0.637130    1.956425
     26          1           0       -1.819965    1.747150    2.753480
     27          1           0       -4.066565    0.494611   -0.423138
     28          1           0       -2.270115   -0.669250   -1.353575
     29          1           0       -4.546440    2.755216    1.038402
     30          1           0       -5.181713    1.208350    1.676050
     31          1           0       -4.164170    1.712300    3.925024
     32          1           0       -3.592614    3.302447    3.292583
     33          1           0       -5.985189    3.963429    2.776500
     34          1           0       -6.561519    2.375443    3.416453
     35          1           0       -6.742050    4.135230    5.077142
     36          1           0       -5.611960    2.962281    5.590582
     37          1           0       -5.068512    4.463167    4.987234
     38          1           0        4.382945   -3.215840   -1.063324
     39          1           0        3.238775   -4.154826   -2.051370
     40          1           0        3.468331   -2.470476   -3.930748
     41          1           0        4.609628   -1.513136   -2.920027
     42          1           0        6.209600   -3.481991   -2.846467
     43          1           0        5.049029   -4.463167   -3.836251
     44          1           0        6.742050   -3.397021   -5.220749
     45          1           0        5.196637   -2.773671   -5.590582
     46          1           0        6.288682   -1.849269   -4.661479
 ---------------------------------------------------------------------
                    Distance matrix (angstroms):
                    1          2          3          4          5
     1  N    0.000000
     2  C    1.305763   0.000000
     3  C    2.350002   1.345855   0.000000
     4  C    2.821628   2.367554   1.352765   0.000000
     5  C    2.351600   2.589414   2.243382   1.352320   0.000000
     6  C    1.306432   2.179171   2.587748   2.366715   1.346389
     7  C    4.185866   3.632967   2.398407   1.364403   2.398779
     8  C    5.074311   4.770457   3.650536   2.403397   2.884452
     9  C    6.388255   5.982992   4.768724   3.638779   4.231461
    10  N    7.007917   6.378680   5.064487   4.186854   5.071981
    11  C    6.373624   5.557964   4.212685   3.627706   4.762518
    12  C    5.060469   4.213671   2.868090   2.393973   3.644098
    13  C    8.545207   7.889277   6.562337   5.724494   6.590572
    14  C    9.483572   8.980893   7.697898   6.697287   7.349083
    15  C   10.955560  10.384670   9.074909   8.149186   8.865401
    16  N   11.946896  11.490651  10.217783   9.189451   9.753435
    17  C    1.521618   2.487446   3.754531   4.342576   3.762211
    18  C    2.561029   3.232333   4.483711   5.181136   4.697732
    19  C    3.910535   4.624229   5.929772   6.649970   6.094257
    20  N    5.014715   5.573644   6.806346   7.567583   7.093162
    21  H    2.047974   1.103662   2.114393   3.353242   3.692934
    22  H    3.284270   2.061377   1.099847   2.157143   3.283023
    23  H    3.289019   3.682327   3.281913   2.154157   1.100140
    24  H    2.051661   3.182471   3.691065   3.350033   2.111059
    25  H    4.993149   4.976649   4.070038   2.720474   2.649944
    26  H    7.147209   6.880419   5.731394   4.513803   4.873040
    27  H    7.130710   6.183659   4.853281   4.503885   5.725741
    28  H    4.976449   3.917416   2.632898   2.713280   4.063144
    29  H    8.933839   8.226339   6.895793   6.136187   7.050008
    30  H    8.904234   8.151025   6.818229   6.123753   7.093808
    31  H    9.336929   8.903858   7.665638   6.623447   7.184715
    32  H    9.433168   9.035783   7.794821   6.699594   7.212058
    33  H   11.263980  10.644674   9.321243   8.448139   9.217718
    34  H   11.190539  10.540260   9.220794   8.394725   9.202750
    35  H   12.905623  12.403260  11.111667  10.127259  10.740329
    36  H   11.841872  11.436662  10.196457   9.141262   9.641852
    37  H   11.908964  11.529160  10.283852   9.189080   9.656785
    38  H    2.172702   3.366867   4.508793   4.837068   3.983242
    39  H    2.153133   2.732675   4.024787   4.793901   4.400285
    40  H    2.805856   3.005011   4.203682   5.115794   4.920470
    41  H    2.806282   3.582556   4.656796   5.137441   4.527946
    42  H    4.239520   5.180858   6.459349   7.005460   6.255466
    43  H    4.223308   4.783459   6.125800   6.975760   6.532115
    44  H    5.909990   6.505519   7.771111   8.540341   8.027145
    45  H    5.101811   5.417579   6.603601   7.495155   7.204122
    46  H    5.115176   5.751610   6.896576   7.521749   6.970068
                    6          7          8          9         10
     6  C    0.000000
     7  C    3.633025   0.000000
     8  C    4.230122   1.353125   0.000000
     9  C    5.576774   2.370736   1.347325   0.000000
    10  N    6.384612   2.822508   2.349284   1.305687   0.000000
    11  C    5.973733   2.363747   2.583686   2.178437   1.306487
    12  C    4.760592   1.351828   2.242893   2.592454   2.353091
    13  C    7.912342   4.360328   3.789687   2.530242   1.538505
    14  C    8.692789   5.361627   4.468057   3.125737   2.695096
    15  C   10.207772   6.795207   5.984961   4.639696   4.017672
    16  N   11.092245   7.870397   6.895887   5.577162   5.219072
    17  C    2.497353   5.706455   6.567510   7.891901   8.527826
    18  C    3.513014   6.513521   7.421654   8.722882   9.301931
    19  C    4.825813   7.998541   8.886213  10.202276  10.802756
    20  N    5.908733   8.867479   9.777929  11.059943  11.607855
    21  H    3.180791   4.511816   5.735116   6.881713   7.138477
    22  H    3.679787   2.718852   4.069534   4.973096   4.980987
    23  H    2.066246   2.715137   2.648821   3.936868   4.990439
    24  H    1.103505   4.508985   4.872273   6.205454   7.144817
    25  H    3.936569   2.153720   1.100209   2.065981   3.286772
    26  H    6.204871   3.352214   2.111148   1.102202   2.052168
    27  H    6.870560   3.348311   3.687524   3.180501   2.049004
    28  H    4.964644   2.157122   3.283153   3.684327   3.287217
    29  H    8.352229   4.798089   4.339677   3.163833   2.147405
    30  H    8.376875   4.791610   4.420794   3.275804   2.151405
    31  H    8.506087   5.345360   4.385774   3.137450   2.953326
    32  H    8.552882   5.412626   4.371984   3.084405   2.991974
    33  H   10.556862   7.090246   6.357097   5.026301   4.300088
    34  H   10.525563   7.045715   6.372397   5.064332   4.279278
    35  H   12.081838   8.791766   7.869821   6.537469   6.071768
    36  H   10.960210   7.860918   6.847864   5.583122   5.344977
    37  H   10.990068   7.900063   6.835769   5.551841   5.361968
    38  H    2.644859   6.174366   6.855130   8.198548   8.966987
    39  H    3.246317   6.124912   7.073763   8.362365   8.906187
    40  H    3.919959   6.387799   7.431264   8.673330   9.106352
    41  H    3.415400   6.415969   7.200872   8.493320   9.146271
    42  H    4.930316   8.359001   9.118881  10.458169  11.169986
    43  H    5.278802   8.323989   9.289157  10.592253  11.124397
    44  H    6.798921   9.856234  10.758162  12.052242  12.614834
    45  H    6.113817   8.751919   9.757062  10.996208  11.433921
    46  H    5.834527   8.783793   9.605398  10.875391  11.476137
                   11         12         13         14         15
    11  C    0.000000
    12  C    1.344985   0.000000
    13  C    2.485233   3.759914   0.000000
    14  C    3.881511   5.041608   1.549628   0.000000
    15  C    5.043251   6.311628   2.566249   1.548660   0.000000
    16  N    6.358474   7.559267   3.908409   2.529673   1.513026
    17  C    7.874029   6.549919  10.064732  10.991445  12.469287
    18  C    8.589476   7.264532  10.826393  11.821977  13.277035
    19  C   10.085937   8.752831  12.332007  13.310713  14.775430
    20  N   10.855378   9.543587  13.112115  14.140301  15.576421
    21  H    6.187630   4.858257   8.607981   9.790078  11.139234
    22  H    3.917975   2.634628   6.384417   7.664321   8.936239
    23  H    4.968447   4.063781   6.434445   6.978396   8.522327
    24  H    6.872565   5.724789   8.643828   9.285882  10.824438
    25  H    3.676812   3.280815   4.594412   4.990858   6.537988
    26  H    3.182191   3.694422   2.706043   2.707568   4.246770
    27  H    1.103980   2.110551   2.617913   4.148188   5.027769
    28  H    2.061985   1.099836   4.541126   5.933197   7.090802
    29  H    2.820268   4.089947   1.117056   2.165257   2.771303
    30  H    2.691113   3.994128   1.117411   2.152976   2.722151
    31  H    4.132877   5.165640   2.188032   1.115940   2.186746
    32  H    4.255246   5.288606   2.192269   1.115766   2.182881
    33  H    5.223363   6.518426   2.818851   2.198286   1.114485
    34  H    5.131056   6.426176   2.820569   2.199216   1.114470
    35  H    7.139805   8.390393   4.664394   3.432074   2.105788
    36  H    6.501752   7.635917   4.176843   2.739879   2.104679
    37  H    6.572107   7.710808   4.176754   2.739900   2.104573
    38  H    8.446497   7.162529  10.500006  11.300568  12.812523
    39  H    8.168003   6.840050  10.426150  11.400949  12.848317
    40  H    8.273776   6.951410  10.602834  11.708938  13.111186
    41  H    8.532279   7.253217  10.655978  11.589553  13.055144
    42  H   10.557597   9.240325  12.706067  13.583133  15.081787
    43  H   10.336524   8.991791  12.648753  13.672088  15.117314
    44  H   11.861155  10.541642  14.125099  15.143408  16.587370
    45  H   10.594384   9.292750  12.912754  14.025123  15.417722
    46  H   10.797906   9.519745  12.966036  13.944147  15.385482
                   16         17         18         19         20
    16  N    0.000000
    17  C   13.442217   0.000000
    18  C   14.298512   1.537349   0.000000
    19  C   15.777857   2.534614   1.537082   0.000000
    20  N   16.616355   3.833519   2.453842   1.503165   0.000000
    21  H   12.309811   2.637903   3.114754   4.349807   5.210686
    22  H   10.181917   4.544728   5.137245   6.539860   7.316628
    23  H    9.271452   4.560340   5.490767   6.824057   7.819087
    24  H   11.600530   2.660352   3.643004   4.746348   5.864584
    25  H    7.259410   6.404523   7.300364   8.709361   9.641325
    26  H    4.932650   8.617494   9.472276  10.927885  11.800217
    27  H    6.459565   8.595132   9.248786  10.731686  11.446239
    28  H    8.414982   6.380347   7.002668   8.458098   9.192607
    29  H    4.170946  10.450924  11.074166  12.601230  13.268840
    30  H    4.132332  10.406297  11.221281  12.705188  13.523862
    31  H    2.767131  10.816418  11.767809  13.216833  14.144780
    32  H    2.760666  10.928382  11.694027  13.184549  13.966045
    33  H    2.142869  12.784948  13.481774  15.002200  15.709962
    34  H    2.141689  12.696463  13.553301  15.038059  15.876826
    35  H    1.045000  14.407978  15.249023  16.736767  17.557359
    36  H    1.044994  13.312777  14.261243  15.708766  16.625206
    37  H    1.044993  13.394047  14.198599  15.677898  16.476356
    38  H   13.687201   1.115194   2.175105   2.750096   4.132490
    39  H   13.856899   1.115914   2.179348   2.760843   4.130797
    40  H   14.218679   2.181448   1.115826   2.180558   2.673765
    41  H   14.030821   2.176136   1.116039   2.185310   2.698255
    42  H   16.002395   2.815911   2.199751   1.113946   2.143002
    43  H   16.154175   2.800938   2.199211   1.113981   2.141220
    44  H   17.616518   4.614857   3.372168   2.097385   1.044948
    45  H   16.525781   4.079775   2.652493   2.096922   1.044985
    46  H   16.386894   4.090320   2.652910   2.096875   1.044988
                   21         22         23         24         25
    21  H    0.000000
    22  H    2.337896   0.000000
    23  H    4.785707   4.263486   0.000000
    24  H    4.086367   4.783100   2.339011   0.000000
    25  H    6.028582   4.713760   2.014280   4.351002   0.000000
    26  H    7.831471   6.023354   4.351326   6.686273   2.338157
    27  H    6.665084   4.329722   6.019824   7.822255   4.780594
    28  H    4.334310   1.997183   4.707685   6.016537   4.262979
    29  H    8.898040   6.645618   6.940579   9.111034   5.167963
    30  H    8.781314   6.509990   7.043313   9.167938   5.297349
    31  H    9.741507   7.704630   6.762731   9.047301   4.798049
    32  H    9.906696   7.872704   6.729206   9.063097   4.728356
    33  H   11.365150   9.125758   8.918160  11.206231   6.963499
    34  H   11.229027   8.988715   8.949285  11.199693   7.016200
    35  H   13.189889  11.015348  10.286866  12.614218   8.275194
    36  H   12.275427  10.210433   9.125235  11.428028   7.140089
    37  H   12.394720  10.326098   9.097784  11.435510   7.092499
    38  H    3.687397   5.408270   4.561502   2.343135   6.519433
    39  H    2.558312   4.650231   5.261413   3.512978   7.001451
    40  H    2.596448   4.646984   5.834342   4.316966   7.470960
    41  H    3.713896   5.397250   5.185656   3.407088   6.996114
    42  H    5.087552   7.191789   6.844051   4.601462   8.811372
    43  H    4.322286   6.632366   7.335859   5.298514   9.180763
    44  H    6.100662   8.274902   8.729301   6.676463  10.592703
    45  H    4.899360   6.969456   8.022110   6.251446   9.736462
    46  H    5.548127   7.473492   7.603048   5.709656   9.410651
                   26         27         28         29         30
    26  H    0.000000
    27  H    4.087416   0.000000
    28  H    4.786390   2.333992   0.000000
    29  H    3.375108   2.734358   4.757119   0.000000
    30  H    3.571066   2.481848   4.602327   1.789682   0.000000
    31  H    2.620883   4.516504   6.092851   3.092958   2.519374
    32  H    2.419063   4.681363   6.253812   2.508102   3.086042
    33  H    4.718211   5.094261   7.233326   2.559446   3.073601
    34  H    4.828729   4.950231   7.102075   3.140047   2.508979
    35  H    5.943842   7.117964   9.188871   4.799642   4.750653
    36  H    4.889266   6.681502   8.519229   4.679803   4.311026
    37  H    4.787428   6.784207   8.624302   4.333928   4.644415
    38  H    8.813362   9.250487   7.129697  10.945532  10.888540
    39  H    9.138422   8.811152   6.556220  10.858404  10.656544
    40  H    9.509645   8.824383   6.543393  10.781320  10.945008
    41  H    9.173757   9.248883   7.106109  10.849957  11.153509
    42  H   11.098524  11.282086   9.057914  13.026410  13.123051
    43  H   11.365548  10.923505   8.609724  12.959179  12.931344
    44  H   12.781194  12.449419  10.179140  14.298846  14.524166
    45  H   11.802284  11.099147   8.839299  13.016896  13.280459
    46  H   11.561401  11.431905   9.251361  13.080130  13.456718
                   31         32         33         34         35
    31  H    0.000000
    32  H    1.804224   0.000000
    33  H    3.114932   2.535282   0.000000
    34  H    2.538835   3.112728   1.806487   0.000000
    35  H    3.720676   3.714448   2.428025   2.426382   0.000000
    36  H    2.536263   3.078030   3.010092   2.443947   1.707786
    37  H    3.084379   2.529306   2.444868   3.009155   1.707734
    38  H   11.055467  11.183538  13.182729  13.080984  14.680227
    39  H   11.177837  11.438384  13.202117  12.984116  14.803972
    40  H   11.724497  11.634436  13.257124  13.343994  15.133714
    41  H   11.586099  11.360596  13.217160  13.418888  14.990642
    42  H   13.433125  13.408950  15.354638  15.382951  16.986785
    43  H   13.537238  13.630958  15.378230  15.302716  17.100016
    44  H   15.122697  14.972140  16.736631  16.879205  18.563467
    45  H   14.081740  13.895350  15.505799  15.681017  17.437474
    46  H   13.988385  13.691139  15.484150  15.755280  17.333636
                   36         37         38         39         40
    36  H    0.000000
    37  H    1.706465   0.000000
    38  H   13.503398  13.598031   0.000000
    39  H   13.688979  13.886064   1.779622   0.000000
    40  H   14.234545  14.159219   3.100678   2.534126   0.000000
    41  H   14.033556  13.853063   2.529413   3.100376   1.800171
    42  H   15.889044  15.864685   2.566535   3.148124   3.116630
    43  H   16.051765  16.121351   3.112654   2.560839   2.545261
    44  H   17.605316  17.477839   4.783554   4.784576   3.638657
    45  H   16.575444  16.420575   4.621003   4.273972   2.415371
    46  H   16.428057  16.184263   4.294889   4.629276   2.978967
                   41         42         43         44         45
    41  H    0.000000
    42  H    2.538053   0.000000
    43  H    3.120132   1.813644   0.000000
    44  H    3.659176   2.434736   2.433068   0.000000
    45  H    3.010879   3.009648   2.440054   1.706940   0.000000
    46  H    2.442307   2.442602   3.008356   1.707004   1.705964
                   46
    46  H    0.000000
 Stoichiometry    C16H26N4(4+)
 Framework group  C1[X(C16H26N4)]
 Deg. of freedom   132
 Full point group                 C1      NOp   1
 Largest Abelian subgroup         C1      NOp   1
 Largest concise Abelian subgroup C1      NOp   1
                         Standard orientation:                         
 ---------------------------------------------------------------------
 Center     Atomic      Atomic             Coordinates (Angstroms)
 Number     Number       Type             X           Y           Z
 ---------------------------------------------------------------------
      1          7           0        3.500979   -0.332609   -0.565051
      2          6           0        2.911384    0.831159   -0.620183
      3          6           0        1.588769    1.030110   -0.470408
      4          6           0        0.718850    0.017659   -0.250957
      5          6           0        1.341357   -1.180902   -0.182358
      6          6           0        2.671922   -1.316276   -0.337392
      7          6           0       -0.629273    0.185638   -0.124701
      8          6           0       -1.510999   -0.824597    0.056767
      9          6           0       -2.839060   -0.623598    0.162295
     10          7           0       -3.419193    0.544842    0.107402
     11          6           0       -2.574515    1.527056   -0.061962
     12          6           0       -1.241487    1.389766   -0.176739
     13          6           0       -4.932763    0.795909    0.221715
     14          6           0       -5.954325   -0.367976    0.165766
     15          6           0       -7.414341    0.142519    0.243858
     16          7           0       -8.403364   -1.001170    0.188582
     17          6           0        4.994471   -0.517668   -0.789897
     18          6           0        5.860839   -0.030502    0.382929
     19          6           0        7.355475   -0.233407    0.087103
     20          7           0        8.127790    0.288105    1.266536
     21          1           0        3.564567    1.698909   -0.816222
     22          1           0        1.272474    2.079887   -0.557527
     23          1           0        0.798234   -2.120768   -0.003532
     24          1           0        3.111620   -2.326802   -0.280607
     25          1           0       -1.197302   -1.877110    0.122125
     26          1           0       -3.497005   -1.496332    0.304748
     27          1           0       -3.009619    2.540420   -0.112452
     28          1           0       -0.693699    2.333354   -0.315334
     29          1           0       -5.098863    1.341964    1.181950
     30          1           0       -5.211831    1.503504   -0.596843
     31          1           0       -5.813866   -0.935660   -0.784670
     32          1           0       -5.769883   -1.068873    1.014093
     33          1           0       -7.576595    0.700527    1.194845
     34          1           0       -7.628867    0.830581   -0.606196
     35          1           0       -9.376027   -0.623073    0.243304
     36          1           0       -8.280058   -1.522793   -0.708479
     37          1           0       -8.232356   -1.646078    0.992859
     38          1           0        5.220235   -1.591304   -0.989881
     39          1           0        5.282908    0.031574   -1.717475
     40          1           0        5.661228    1.051008    0.571502
     41          1           0        5.576894   -0.590523    1.305585
     42          1           0        7.594152   -1.312141   -0.055168
     43          1           0        7.664092    0.329239   -0.823467
     44          1           0        9.151153    0.164450    1.095209
     45          1           0        7.916152    1.302728    1.399739
     46          1           0        7.850962   -0.240212    2.124584
 ---------------------------------------------------------------------
 Rotational constants (GHZ):      1.7767475      0.0778771      0.0762221
 Standard basis: 6-311++G(d,p) (5D, 7F)
 There are   642 symmetry adapted cartesian basis functions of A   symmetry.
 There are   622 symmetry adapted basis functions of A   symmetry.
   622 basis functions,   954 primitive gaussians,   642 cartesian basis functions
    73 alpha electrons       73 beta electrons
       nuclear repulsion energy      1448.2862648660 Hartrees.
 NAtoms=   46 NActive=   46 NUniq=   46 SFac= 1.00D+00 NAtFMM=   60 NAOKFM=F Big=F
 Integral buffers will be    131072 words long.
 Raffenetti 2 integral format.
 Two-electron integral symmetry is turned on.
 One-electron integrals computed using PRISM.
 NBasis=   622 RedAO= T EigKep=  2.04D-06  NBF=   622
 NBsUse=   616 1.00D-06 EigRej=  5.06D-07 NBFU=   616
 ExpMin= 3.60D-02 ExpMax= 6.29D+03 ExpMxC= 9.49D+02 IAcc=3 IRadAn=         5 AccDes= 0.00D+00
 Harris functional with IExCor=  402 and IRadAn=       5 diagonalized for initial guess.
 HarFok:  IExCor=  402 AccDes= 0.00D+00 IRadAn=         5 IDoV= 1 UseB2=F ITyADJ=14
 ICtDFT=  3500011 ScaDFX=  1.000000  1.000000  1.000000  1.000000
 FoFCou: FMM=F IPFlag=           0 FMFlag=      100000 FMFlg1=           0
         NFxFlg=           0 DoJE=T BraDBF=F KetDBF=T FulRan=T
         wScrn=  0.000000 ICntrl=     500 IOpCl=  0 I1Cent=   200000004 NGrid=           0
         NMat0=    1 NMatS0=      1 NMatT0=    0 NMatD0=    1 NMtDS0=    0 NMtDT0=    0
 Petite list used in FoFCou.
 Requested convergence on RMS density matrix=1.00D-08 within 128 cycles.
 Requested convergence on MAX density matrix=1.00D-06.
 Requested convergence on             energy=1.00D-06.
 No special actions if energy rises.
 SCF Done:  E(RB3LYP) =  -843.137208155     A.U. after   13 cycles
            NFock= 13  Conv=0.72D-08     -V/T= 2.0032

 **********************************************************************

            Population analysis using the SCF density.

 **********************************************************************

 Orbital symmetries:
       Occupied  (A) (A) (A) (A) (A) (A) (A) (A) (A) (A) (A) (A)
                 (A) (A) (A) (A) (A) (A) (A) (A) (A) (A) (A) (A)
                 (A) (A) (A) (A) (A) (A) (A) (A) (A) (A) (A) (A)
                 (A) (A) (A) (A) (A) (A) (A) (A) (A) (A) (A) (A)
                 (A) (A) (A) (A) (A) (A) (A) (A) (A) (A) (A) (A)
                 (A) (A) (A) (A) (A) (A) (A) (A) (A) (A) (A) (A)
                 (A)
       Virtual   (A) (A) (A) (A) (A) (A) (A) (A) (A) (A) (A) (A)
                 (A) (A) (A) (A) (A) (A) (A) (A) (A) (A) (A) (A)
                 (A) (A) (A) (A) (A) (A) (A) (A) (A) (A) (A) (A)
                 (A) (A) (A) (A) (A) (A) (A) (A) (A) (A) (A) (A)
                 (A) (A) (A) (A) (A) (A) (A) (A) (A) (A) (A) (A)
                 (A) (A) (A) (A) (A) (A) (A) (A) (A) (A) (A) (A)
                 (A) (A) (A) (A) (A) (A) (A) (A) (A) (A) (A) (A)
                 (A) (A) (A) (A) (A) (A) (A) (A) (A) (A) (A) (A)
                 (A) (A) (A) (A) (A) (A) (A) (A) (A) (A) (A) (A)
                 (A) (A) (A) (A) (A) (A) (A) (A) (A) (A) (A) (A)
                 (A) (A) (A) (A) (A) (A) (A) (A) (A) (A) (A) (A)
                 (A) (A) (A) (A) (A) (A) (A) (A) (A) (A) (A) (A)
                 (A) (A) (A) (A) (A) (A) (A) (A) (A) (A) (A) (A)
                 (A) (A) (A) (A) (A) (A) (A) (A) (A) (A) (A) (A)
                 (A) (A) (A) (A) (A) (A) (A) (A) (A) (A) (A) (A)
                 (A) (A) (A) (A) (A) (A) (A) (A) (A) (A) (A) (A)
                 (A) (A) (A) (A) (A) (A) (A) (A) (A) (A) (A) (A)
                 (A) (A) (A) (A) (A) (A) (A) (A) (A) (A) (A) (A)
                 (A) (A) (A) (A) (A) (A) (A) (A) (A) (A) (A) (A)
                 (A) (A) (A) (A) (A) (A) (A) (A) (A) (A) (A) (A)
                 (A) (A) (A) (A) (A) (A) (A) (A) (A) (A) (A) (A)
                 (A) (A) (A) (A) (A) (A) (A) (A) (A) (A) (A) (A)
                 (A) (A) (A) (A) (A) (A) (A) (A) (A) (A) (A) (A)
                 (A) (A) (A) (A) (A) (A) (A) (A) (A) (A) (A) (A)
                 (A) (A) (A) (A) (A) (A) (A) (A) (A) (A) (A) (A)
                 (A) (A) (A) (A) (A) (A) (A) (A) (A) (A) (A) (A)
                 (A) (A) (A) (A) (A) (A) (A) (A) (A) (A) (A) (A)
                 (A) (A) (A) (A) (A) (A) (A) (A) (A) (A) (A) (A)
                 (A) (A) (A) (A) (A) (A) (A) (A) (A) (A) (A) (A)
                 (A) (A) (A) (A) (A) (A) (A) (A) (A) (A) (A) (A)
                 (A) (A) (A) (A) (A) (A) (A) (A) (A) (A) (A) (A)
                 (A) (A) (A) (A) (A) (A) (A) (A) (A) (A) (A) (A)
                 (A) (A) (A) (A) (A) (A) (A) (A) (A) (A) (A) (A)
                 (A) (A) (A) (A) (A) (A) (A) (A) (A) (A) (A) (A)
                 (A) (A) (A) (A) (A) (A) (A) (A) (A) (A) (A) (A)
                 (A) (A) (A) (A) (A) (A) (A) (A) (A) (A) (A) (A)
                 (A) (A) (A) (A) (A) (A) (A) (A) (A) (A) (A) (A)
                 (A) (A) (A) (A) (A) (A) (A) (A) (A) (A) (A) (A)
                 (A) (A) (A) (A) (A) (A) (A) (A) (A) (A) (A) (A)
                 (A) (A) (A) (A) (A) (A) (A) (A) (A) (A) (A) (A)
                 (A) (A) (A) (A) (A) (A) (A) (A) (A) (A) (A) (A)
                 (A) (A) (A) (A) (A) (A) (A) (A) (A) (A) (A) (A)
                 (A) (A) (A) (A) (A) (A) (A) (A) (A) (A) (A) (A)
                 (A) (A) (A) (A) (A) (A) (A) (A) (A) (A) (A) (A)
                 (A) (A) (A) (A) (A) (A) (A) (A) (A) (A) (A) (A)
                 (A) (A) (A)
 The electronic state is 1-A.
 Alpha  occ. eigenvalues --  -14.85171 -14.85044 -14.84993 -14.84942 -10.66012
 Alpha  occ. eigenvalues --  -10.66009 -10.65934 -10.65872 -10.65750 -10.65678
 Alpha  occ. eigenvalues --  -10.65241 -10.64953 -10.63527 -10.63419 -10.61808
 Alpha  occ. eigenvalues --  -10.61808 -10.61792 -10.61744 -10.61672 -10.61464
 Alpha  occ. eigenvalues --   -1.47770  -1.47589  -1.40890  -1.40637  -1.33500
 Alpha  occ. eigenvalues --   -1.27952  -1.23181  -1.23068  -1.22532  -1.21836
 Alpha  occ. eigenvalues --   -1.16722  -1.13594  -1.12320  -1.10937  -1.09571
 Alpha  occ. eigenvalues --   -1.06316  -1.04728  -1.04340  -1.00525  -0.99542
 Alpha  occ. eigenvalues --   -0.99343  -0.99187  -0.98636  -0.98000  -0.96531
 Alpha  occ. eigenvalues --   -0.94587  -0.92922  -0.92441  -0.91005  -0.90793
 Alpha  occ. eigenvalues --   -0.90181  -0.89342  -0.88998  -0.88254  -0.87760
 Alpha  occ. eigenvalues --   -0.87299  -0.85866  -0.85172  -0.83593  -0.82684
 Alpha  occ. eigenvalues --   -0.82130  -0.81761  -0.81687  -0.81324  -0.79916
 Alpha  occ. eigenvalues --   -0.79142  -0.78904  -0.78001  -0.77111  -0.76823
 Alpha  occ. eigenvalues --   -0.71995  -0.71719  -0.71171
 Alpha virt. eigenvalues --   -0.53263  -0.46137  -0.44666  -0.43646  -0.39519
 Alpha virt. eigenvalues --   -0.39425  -0.37769  -0.36693  -0.36606  -0.35947
 Alpha virt. eigenvalues --   -0.35589  -0.34978  -0.34813  -0.34632  -0.33908
 Alpha virt. eigenvalues --   -0.33552  -0.33278  -0.32949  -0.32226  -0.31912
 Alpha virt. eigenvalues --   -0.31690  -0.31412  -0.30855  -0.30464  -0.30146
 Alpha virt. eigenvalues --   -0.29117  -0.28908  -0.28812  -0.28486  -0.28259
 Alpha virt. eigenvalues --   -0.27563  -0.27438  -0.27356  -0.27254  -0.26889
 Alpha virt. eigenvalues --   -0.26532  -0.26432  -0.26209  -0.25926  -0.25315
 Alpha virt. eigenvalues --   -0.24962  -0.24615  -0.24383  -0.24171  -0.23602
 Alpha virt. eigenvalues --   -0.23533  -0.23237  -0.22940  -0.22610  -0.22311
 Alpha virt. eigenvalues --   -0.22247  -0.21998  -0.21971  -0.21591  -0.21402
 Alpha virt. eigenvalues --   -0.21144  -0.21029  -0.20858  -0.20541  -0.20167
 Alpha virt. eigenvalues --   -0.20027  -0.19479  -0.19202  -0.19113  -0.18745
 Alpha virt. eigenvalues --   -0.18640  -0.18521  -0.18367  -0.18296  -0.17930
 Alpha virt. eigenvalues --   -0.17721  -0.17510  -0.17442  -0.17261  -0.17140
 Alpha virt. eigenvalues --   -0.16799  -0.16620  -0.16368  -0.16224  -0.16147
 Alpha virt. eigenvalues --   -0.15794  -0.15396  -0.15198  -0.15091  -0.14780
 Alpha virt. eigenvalues --   -0.14650  -0.14326  -0.14222  -0.13967  -0.13770
 Alpha virt. eigenvalues --   -0.13497  -0.13334  -0.13074  -0.12913  -0.12683
 Alpha virt. eigenvalues --   -0.12366  -0.12055  -0.11993  -0.11646  -0.11414
 Alpha virt. eigenvalues --   -0.10910  -0.10872  -0.10656  -0.10414  -0.10227
 Alpha virt. eigenvalues --   -0.09966  -0.09409  -0.08989  -0.08792  -0.08255
 Alpha virt. eigenvalues --   -0.07924  -0.07722  -0.07223  -0.06695  -0.06465
 Alpha virt. eigenvalues --   -0.06246  -0.05993  -0.05534  -0.05210  -0.04710
 Alpha virt. eigenvalues --   -0.04683  -0.04567  -0.04054  -0.03808  -0.03601
 Alpha virt. eigenvalues --   -0.03068  -0.02911  -0.02501  -0.02322  -0.01735
 Alpha virt. eigenvalues --   -0.01527  -0.01275  -0.00732  -0.00604  -0.00346
 Alpha virt. eigenvalues --   -0.00098   0.00384   0.00693   0.01036   0.01335
 Alpha virt. eigenvalues --    0.01624   0.01771   0.02646   0.03703   0.04191
 Alpha virt. eigenvalues --    0.05656   0.05857   0.06733   0.06980   0.07957
 Alpha virt. eigenvalues --    0.08508   0.08849   0.09862   0.10437   0.11457
 Alpha virt. eigenvalues --    0.11855   0.12522   0.12812   0.13284   0.13531
 Alpha virt. eigenvalues --    0.14236   0.14557   0.14765   0.15856   0.16384
 Alpha virt. eigenvalues --    0.17476   0.17746   0.17984   0.18539   0.19067
 Alpha virt. eigenvalues --    0.19948   0.19998   0.20380   0.20678   0.20975
 Alpha virt. eigenvalues --    0.21029   0.21844   0.22383   0.22965   0.23550
 Alpha virt. eigenvalues --    0.24181   0.24630   0.24931   0.25369   0.25760
 Alpha virt. eigenvalues --    0.26013   0.26852   0.27169   0.27516   0.27973
 Alpha virt. eigenvalues --    0.28203   0.28555   0.29304   0.29917   0.30189
 Alpha virt. eigenvalues --    0.30839   0.31113   0.31325   0.31791   0.32228
 Alpha virt. eigenvalues --    0.32493   0.33141   0.33948   0.34457   0.34761
 Alpha virt. eigenvalues --    0.35174   0.35506   0.35805   0.35931   0.36531
 Alpha virt. eigenvalues --    0.36991   0.37628   0.37893   0.38369   0.39005
 Alpha virt. eigenvalues --    0.39556   0.39735   0.40717   0.41253   0.41907
 Alpha virt. eigenvalues --    0.42493   0.43003   0.43971   0.44531   0.45305
 Alpha virt. eigenvalues --    0.46677   0.48062   0.48482   0.48554   0.49233
 Alpha virt. eigenvalues --    0.49640   0.50595   0.50805   0.51825   0.52833
 Alpha virt. eigenvalues --    0.53664   0.54811   0.55267   0.55477   0.56772
 Alpha virt. eigenvalues --    0.57298   0.57620   0.58439   0.60909   0.60991
 Alpha virt. eigenvalues --    0.61275   0.62100   0.62715   0.63362   0.63777
 Alpha virt. eigenvalues --    0.65167   0.66564   0.67523   0.67785   0.68049
 Alpha virt. eigenvalues --    0.68476   0.70209   0.71194   0.72029   0.73748
 Alpha virt. eigenvalues --    0.74714   0.74981   0.75251   0.76848   0.78429
 Alpha virt. eigenvalues --    0.79562   0.80495   0.80850   0.81911   0.82747
 Alpha virt. eigenvalues --    0.82966   0.84297   0.85049   0.85731   0.85995
 Alpha virt. eigenvalues --    0.89784   0.93217   0.96039   0.97579   0.98870
 Alpha virt. eigenvalues --    1.00337   1.00700   1.00771   1.02086   1.04444
 Alpha virt. eigenvalues --    1.04944   1.05003   1.05750   1.06796   1.08908
 Alpha virt. eigenvalues --    1.09083   1.09979   1.12429   1.13151   1.13273
 Alpha virt. eigenvalues --    1.13905   1.14042   1.15075   1.15380   1.16262
 Alpha virt. eigenvalues --    1.16541   1.17028   1.17294   1.17611   1.18882
 Alpha virt. eigenvalues --    1.20289   1.21124   1.22232   1.22683   1.23036
 Alpha virt. eigenvalues --    1.23541   1.23784   1.24716   1.25673   1.26256
 Alpha virt. eigenvalues --    1.27437   1.27874   1.28614   1.28934   1.29740
 Alpha virt. eigenvalues --    1.30008   1.30532   1.31324   1.31678   1.31902
 Alpha virt. eigenvalues --    1.32710   1.33294   1.33716   1.33923   1.34295
 Alpha virt. eigenvalues --    1.35164   1.35613   1.36045   1.36727   1.37642
 Alpha virt. eigenvalues --    1.39671   1.40188   1.40929   1.41893   1.42826
 Alpha virt. eigenvalues --    1.44255   1.45280   1.46543   1.46991   1.47435
 Alpha virt. eigenvalues --    1.47637   1.48577   1.50504   1.51245   1.53033
 Alpha virt. eigenvalues --    1.53930   1.55106   1.56032   1.56438   1.56737
 Alpha virt. eigenvalues --    1.57967   1.58745   1.60990   1.63000   1.63401
 Alpha virt. eigenvalues --    1.64374   1.64797   1.65605   1.66225   1.67013
 Alpha virt. eigenvalues --    1.67799   1.68639   1.68693   1.69756   1.71334
 Alpha virt. eigenvalues --    1.72585   1.72985   1.74301   1.75268   1.75949
 Alpha virt. eigenvalues --    1.76322   1.79522   1.80980   1.81100   1.82299
 Alpha virt. eigenvalues --    1.84506   1.85157   1.86255   1.87492   1.90924
 Alpha virt. eigenvalues --    1.91654   1.93164   1.93469   1.95428   1.97316
 Alpha virt. eigenvalues --    1.98374   2.00017   2.01021   2.02015   2.03340
 Alpha virt. eigenvalues --    2.03611   2.03719   2.04508   2.06248   2.06837
 Alpha virt. eigenvalues --    2.09172   2.09890   2.10170   2.10524   2.11346
 Alpha virt. eigenvalues --    2.11594   2.12172   2.12461   2.15051   2.15565
 Alpha virt. eigenvalues --    2.15864   2.17285   2.19321   2.19871   2.20584
 Alpha virt. eigenvalues --    2.21545   2.22281   2.24167   2.25296   2.25442
 Alpha virt. eigenvalues --    2.25510   2.27265   2.27407   2.28333   2.29140
 Alpha virt. eigenvalues --    2.30485   2.30808   2.31902   2.32781   2.33120
 Alpha virt. eigenvalues --    2.33628   2.34274   2.34982   2.35417   2.35625
 Alpha virt. eigenvalues --    2.36251   2.37216   2.37783   2.37853   2.38480
 Alpha virt. eigenvalues --    2.39105   2.41115   2.41769   2.42718   2.43238
 Alpha virt. eigenvalues --    2.44254   2.47161   2.47453   2.48820   2.49633
 Alpha virt. eigenvalues --    2.50773   2.51550   2.52208   2.52968   2.54192
 Alpha virt. eigenvalues --    2.55245   2.55472   2.56741   2.57676   2.57852
 Alpha virt. eigenvalues --    2.58171   2.59238   2.60652   2.60955   2.61709
 Alpha virt. eigenvalues --    2.63024   2.63075   2.63916   2.64486   2.65239
 Alpha virt. eigenvalues --    2.68347   2.69488   2.85206   2.88226   2.91471
 Alpha virt. eigenvalues --    2.92681   2.94642   2.98459   3.00398   3.01746
 Alpha virt. eigenvalues --    3.06745   3.07256   3.07757   3.11851   3.14033
 Alpha virt. eigenvalues --    3.16234   3.22687   3.24754   3.26669   3.28032
 Alpha virt. eigenvalues --    3.30380   3.31214   3.32572   3.34382   3.35792
 Alpha virt. eigenvalues --    3.37537   3.38621   3.39661   3.47902   3.49968
 Alpha virt. eigenvalues --    3.50474   3.53942   3.55289   3.60033   3.64425
 Alpha virt. eigenvalues --    3.64899   3.71445   3.74998   3.77795   3.79720
 Alpha virt. eigenvalues --    3.93659   4.05339   4.17173   4.17480   4.17882
 Alpha virt. eigenvalues --    4.18352   4.19046   4.26197   4.27719   4.48046
 Alpha virt. eigenvalues --    4.55786   4.80292   4.84942  23.19342  23.35918
 Alpha virt. eigenvalues --   23.37300  23.38339  23.40411  23.42616  23.43837
 Alpha virt. eigenvalues --   23.47604  23.51424  23.55742  23.69096  23.76931
 Alpha virt. eigenvalues --   23.80322  23.82036  23.86394  23.91440  35.06559
 Alpha virt. eigenvalues --   35.06703  35.20698  35.22079
          Condensed to atoms (all electrons):
               1          2          3          4          5          6
     1  N    6.719223   0.157792  -0.101510  -0.159671  -0.070671   0.255552
     2  C    0.157792   6.285540   1.637392  -0.944649  -0.537756  -0.318354
     3  C   -0.101510   1.637392   8.038023  -0.543698  -1.533911  -0.835178
     4  C   -0.159671  -0.944649  -0.543698   9.527814  -0.040210  -0.903867
     5  C   -0.070671  -0.537756  -1.533911  -0.040210   8.148184   1.603508
     6  C    0.255552  -0.318354  -0.835178  -0.903867   1.603508   6.683331
     7  C   -0.196550  -0.366776  -0.638314   2.208058  -0.606962  -0.544832
     8  C   -0.006531  -0.728988  -2.202832  -0.238892   1.377863   0.825237
     9  C   -0.004234  -0.150676  -0.905662  -0.404161   0.975852   0.334438
    10  N   -0.001026  -0.000551   0.006138  -0.130286  -0.050247  -0.012056
    11  C   -0.012230   0.248891   0.863887  -0.670357  -0.834840  -0.203686
    12  C   -0.041429   0.709726   1.889523  -0.684544  -2.626382  -0.983514
    13  C   -0.000640   0.003443   0.096990  -0.227273  -0.116433  -0.022365
    14  C    0.000000   0.000411  -0.012087   0.046400   0.032137   0.002191
    15  C   -0.000002   0.000103   0.001939  -0.002844  -0.000553  -0.000471
    16  N    0.000000  -0.000002  -0.000056  -0.000061   0.000093   0.000007
    17  C    0.153154  -0.387684   0.004788  -0.390277   0.161404  -0.283348
    18  C    0.053406   0.159534  -0.013557   0.078294  -0.104687   0.119816
    19  C   -0.026557  -0.101959  -0.033457   0.028709   0.008247  -0.060221
    20  N   -0.006783   0.001202   0.001625  -0.001761  -0.001689  -0.002937
    21  H   -0.096375   0.421115   0.025009  -0.005952  -0.010618   0.001049
    22  H    0.040543  -0.027344   0.330850  -0.014279   0.060893   0.007901
    23  H    0.045173  -0.015026   0.007136  -0.082303   0.433649   0.080767
    24  H   -0.088625   0.005306  -0.016808   0.050659   0.007665   0.383258
    25  H   -0.005351  -0.003824  -0.008021  -0.073002  -0.039645  -0.058723
    26  H    0.000040  -0.000770  -0.022361   0.026408   0.040636   0.012847
    27  H   -0.000091   0.000542   0.003382   0.004144  -0.003990   0.001091
    28  H   -0.003892   0.001749   0.074784  -0.092703  -0.072327  -0.023418
    29  H    0.000012   0.000278   0.000310   0.002295   0.000459  -0.000146
    30  H   -0.000008  -0.000147   0.001336  -0.001092   0.000844  -0.000055
    31  H    0.000002   0.000002  -0.000558   0.000121   0.001111  -0.000024
    32  H   -0.000002  -0.000088   0.000845  -0.004108  -0.000986  -0.000153
    33  H    0.000000  -0.000006  -0.000132   0.000274   0.000116   0.000013
    34  H    0.000000   0.000000   0.000019  -0.000187  -0.000099   0.000001
    35  H    0.000000   0.000000  -0.000002  -0.000018   0.000002   0.000000
    36  H    0.000000   0.000000  -0.000001   0.000033   0.000015   0.000001
    37  H    0.000000   0.000000  -0.000006   0.000033   0.000022   0.000002
    38  H   -0.070445  -0.035452   0.004462  -0.019116   0.006100  -0.008762
    39  H    0.001977  -0.037750   0.005067   0.013165  -0.001887  -0.027731
    40  H   -0.015117  -0.021323  -0.008570  -0.002153   0.003293  -0.011662
    41  H    0.033451  -0.015416   0.006287  -0.001019  -0.008211  -0.005611
    42  H   -0.005404   0.000926  -0.001163   0.000406   0.000919  -0.002636
    43  H    0.000012   0.002492   0.003198  -0.001394  -0.001482   0.000669
    44  H   -0.000675  -0.000888  -0.000003  -0.000100  -0.000098  -0.000699
    45  H    0.000842   0.000017  -0.000358   0.000369  -0.000005  -0.000436
    46  H    0.000507  -0.000389  -0.000039   0.000105  -0.000070   0.000753
               7          8          9         10         11         12
     1  N   -0.196550  -0.006531  -0.004234  -0.001026  -0.012230  -0.041429
     2  C   -0.366776  -0.728988  -0.150676  -0.000551   0.248891   0.709726
     3  C   -0.638314  -2.202832  -0.905662   0.006138   0.863887   1.889523
     4  C    2.208058  -0.238892  -0.404161  -0.130286  -0.670357  -0.684544
     5  C   -0.606962   1.377863   0.975852  -0.050247  -0.834840  -2.626382
     6  C   -0.544832   0.825237   0.334438  -0.012056  -0.203686  -0.983514
     7  C    9.955296  -0.280959  -0.636200  -0.257056  -0.963011  -0.234565
     8  C   -0.280959   7.624487   1.478003  -0.091027  -0.578386  -1.355363
     9  C   -0.636200   1.478003   6.642865   0.153650  -0.325808  -0.973670
    10  N   -0.257056  -0.091027   0.153650   6.592521   0.363422  -0.030074
    11  C   -0.963011  -0.578386  -0.325808   0.363422   6.215803   1.681647
    12  C   -0.234565  -1.355363  -0.973670  -0.030074   1.681647   8.384515
    13  C   -0.398591  -0.036429  -0.253899   0.306040  -0.205312   0.034744
    14  C   -0.248185   0.044194   0.074910  -0.150756   0.022932   0.036079
    15  C   -0.065901   0.061965  -0.345939   0.009304  -0.185381  -0.004604
    16  N    0.000353  -0.004258   0.014466  -0.002461   0.005192   0.000011
    17  C   -0.137792   0.018880  -0.010290  -0.000578  -0.008695  -0.005067
    18  C   -0.021385   0.004858   0.001704  -0.000038  -0.003058  -0.010717
    19  C   -0.009046   0.000022  -0.000351  -0.000005  -0.000027   0.000413
    20  N   -0.000129   0.000016   0.000003   0.000000  -0.000007  -0.000056
    21  H    0.006514  -0.015727   0.000650   0.000071   0.007384   0.016019
    22  H   -0.042036  -0.004755  -0.008374  -0.003661  -0.048720  -0.015719
    23  H   -0.118198   0.051827  -0.011912  -0.005904  -0.030841  -0.086318
    24  H    0.025024   0.006969   0.004224   0.000291   0.002744  -0.000752
    25  H   -0.063240   0.348928  -0.025152   0.040726   0.032053   0.097870
    26  H    0.038082   0.012217   0.457974  -0.091191  -0.001406  -0.055935
    27  H    0.017565  -0.005482  -0.007427  -0.081956   0.381190  -0.000484
    28  H   -0.095237  -0.008101  -0.013615   0.035606   0.040158   0.437874
    29  H    0.011744   0.001544  -0.036738   0.007597   0.017561  -0.001943
    30  H    0.017699  -0.007537  -0.011992  -0.035451   0.001019   0.000876
    31  H   -0.003303   0.000351  -0.026669   0.020170   0.012654  -0.002870
    32  H    0.009648  -0.014593   0.034779  -0.002807  -0.006807   0.002493
    33  H   -0.001764  -0.000123  -0.000791   0.000151   0.009122   0.000851
    34  H    0.001119  -0.002076   0.008629  -0.002696   0.003217   0.000238
    35  H   -0.000054  -0.000006  -0.001380  -0.000285  -0.000665  -0.000009
    36  H   -0.000171   0.000037  -0.001111   0.000248   0.000758   0.000095
    37  H    0.000025   0.000078  -0.000633   0.000276   0.000046   0.000036
    38  H   -0.006495  -0.001442  -0.000474  -0.000022  -0.000209   0.001356
    39  H   -0.002833   0.002816  -0.000198  -0.000004  -0.000318  -0.001006
    40  H   -0.002723   0.000399   0.000021  -0.000002  -0.000204   0.000753
    41  H   -0.000757   0.002127   0.000147  -0.000005  -0.000329  -0.001151
    42  H    0.000030  -0.000052  -0.000011   0.000000   0.000015   0.000018
    43  H    0.000347   0.000033   0.000024   0.000000  -0.000018  -0.000111
    44  H   -0.000044   0.000003   0.000000   0.000000  -0.000001  -0.000004
    45  H   -0.000024   0.000004  -0.000001   0.000000  -0.000001  -0.000002
    46  H   -0.000009  -0.000004   0.000002   0.000000  -0.000001  -0.000001
              13         14         15         16         17         18
     1  N   -0.000640   0.000000  -0.000002   0.000000   0.153154   0.053406
     2  C    0.003443   0.000411   0.000103  -0.000002  -0.387684   0.159534
     3  C    0.096990  -0.012087   0.001939  -0.000056   0.004788  -0.013557
     4  C   -0.227273   0.046400  -0.002844  -0.000061  -0.390277   0.078294
     5  C   -0.116433   0.032137  -0.000553   0.000093   0.161404  -0.104687
     6  C   -0.022365   0.002191  -0.000471   0.000007  -0.283348   0.119816
     7  C   -0.398591  -0.248185  -0.065901   0.000353  -0.137792  -0.021385
     8  C   -0.036429   0.044194   0.061965  -0.004258   0.018880   0.004858
     9  C   -0.253899   0.074910  -0.345939   0.014466  -0.010290   0.001704
    10  N    0.306040  -0.150756   0.009304  -0.002461  -0.000578  -0.000038
    11  C   -0.205312   0.022932  -0.185381   0.005192  -0.008695  -0.003058
    12  C    0.034744   0.036079  -0.004604   0.000011  -0.005067  -0.010717
    13  C    7.509102  -1.009797   0.200301   0.010861  -0.000620  -0.000039
    14  C   -1.009797   7.310958  -1.313687   0.147297  -0.000154   0.000009
    15  C    0.200301  -1.313687   8.076205  -0.151253  -0.000009   0.000001
    16  N    0.010861   0.147297  -0.151253   6.156406   0.000000   0.000000
    17  C   -0.000620  -0.000154  -0.000009   0.000000   7.374087  -1.203913
    18  C   -0.000039   0.000009   0.000001   0.000000  -1.203913   7.004231
    19  C    0.000001  -0.000001   0.000000   0.000000   0.363171  -0.918128
    20  N    0.000000   0.000000   0.000000   0.000000  -0.031153   0.031571
    21  H    0.000076   0.000123   0.000003   0.000000   0.009042  -0.000561
    22  H   -0.004793  -0.000986  -0.000160   0.000001   0.025871   0.006011
    23  H   -0.014957   0.002220  -0.001070   0.000021   0.036098   0.000890
    24  H    0.000496   0.000073   0.000022   0.000000   0.002477  -0.006420
    25  H    0.077674  -0.017020   0.012248  -0.000325  -0.007640   0.000306
    26  H   -0.154202   0.111418  -0.052202   0.003249   0.000236  -0.000060
    27  H    0.047297   0.008968  -0.006893   0.000243   0.000019  -0.000034
    28  H    0.027542   0.002162   0.002710  -0.000041  -0.004079  -0.000993
    29  H    0.308694  -0.010512   0.014748   0.000612  -0.000003   0.000008
    30  H    0.380811  -0.027635  -0.008371  -0.001831  -0.000007  -0.000002
    31  H   -0.111099   0.482555  -0.023672   0.000375  -0.000005   0.000002
    32  H    0.031645   0.412372  -0.123350  -0.001129   0.000001  -0.000001
    33  H   -0.020896   0.011450   0.342315  -0.009614   0.000000   0.000000
    34  H   -0.030535   0.054023   0.283166   0.001449   0.000000   0.000000
    35  H   -0.000653  -0.011310   0.019116   0.320227   0.000000   0.000000
    36  H    0.002525   0.002736  -0.016472   0.348850   0.000000   0.000000
    37  H   -0.006466   0.015977  -0.023900   0.350791   0.000000   0.000000
    38  H   -0.000038  -0.000001   0.000000   0.000000   0.480829  -0.071722
    39  H    0.000001  -0.000008   0.000000   0.000000   0.444418  -0.058870
    40  H   -0.000011   0.000002   0.000000   0.000000  -0.037326   0.440026
    41  H   -0.000011  -0.000003   0.000000   0.000000  -0.091549   0.518241
    42  H    0.000001   0.000000   0.000000   0.000000  -0.004880  -0.053979
    43  H    0.000000   0.000000   0.000000   0.000000  -0.047552   0.039841
    44  H    0.000000   0.000000   0.000000   0.000000  -0.000213   0.000139
    45  H    0.000000   0.000000   0.000000   0.000000   0.004233  -0.006916
    46  H    0.000000   0.000000   0.000000   0.000000  -0.006045   0.025309
              19         20         21         22         23         24
     1  N   -0.026557  -0.006783  -0.096375   0.040543   0.045173  -0.088625
     2  C   -0.101959   0.001202   0.421115  -0.027344  -0.015026   0.005306
     3  C   -0.033457   0.001625   0.025009   0.330850   0.007136  -0.016808
     4  C    0.028709  -0.001761  -0.005952  -0.014279  -0.082303   0.050659
     5  C    0.008247  -0.001689  -0.010618   0.060893   0.433649   0.007665
     6  C   -0.060221  -0.002937   0.001049   0.007901   0.080767   0.383258
     7  C   -0.009046  -0.000129   0.006514  -0.042036  -0.118198   0.025024
     8  C    0.000022   0.000016  -0.015727  -0.004755   0.051827   0.006969
     9  C   -0.000351   0.000003   0.000650  -0.008374  -0.011912   0.004224
    10  N   -0.000005   0.000000   0.000071  -0.003661  -0.005904   0.000291
    11  C   -0.000027  -0.000007   0.007384  -0.048720  -0.030841   0.002744
    12  C    0.000413  -0.000056   0.016019  -0.015719  -0.086318  -0.000752
    13  C    0.000001   0.000000   0.000076  -0.004793  -0.014957   0.000496
    14  C   -0.000001   0.000000   0.000123  -0.000986   0.002220   0.000073
    15  C    0.000000   0.000000   0.000003  -0.000160  -0.001070   0.000022
    16  N    0.000000   0.000000   0.000000   0.000001   0.000021   0.000000
    17  C    0.363171  -0.031153   0.009042   0.025871   0.036098   0.002477
    18  C   -0.918128   0.031571  -0.000561   0.006011   0.000890  -0.006420
    19  C    6.785637  -0.003324  -0.015291   0.000240   0.002725  -0.011801
    20  N   -0.003324   6.170573   0.000924   0.000149   0.000069  -0.000338
    21  H   -0.015291   0.000924   0.449534  -0.028272   0.000420   0.000602
    22  H    0.000240   0.000149  -0.028272   0.492901   0.001259  -0.000506
    23  H    0.002725   0.000069   0.000420   0.001259   0.527169  -0.035489
    24  H   -0.011801  -0.000338   0.000602  -0.000506  -0.035489   0.439016
    25  H   -0.000238   0.000000  -0.000661  -0.000648  -0.036942   0.007792
    26  H   -0.000001   0.000000   0.000194  -0.000663   0.012154  -0.000851
    27  H   -0.000008   0.000000  -0.000197   0.003093  -0.000715   0.000103
    28  H    0.000164  -0.000015   0.003751  -0.012069  -0.002002  -0.000097
    29  H    0.000000   0.000000  -0.000003   0.000004   0.000200  -0.000012
    30  H    0.000000   0.000000   0.000011  -0.000349   0.000164  -0.000005
    31  H    0.000000   0.000000  -0.000001  -0.000006  -0.000109   0.000005
    32  H    0.000000   0.000000  -0.000008   0.000082  -0.000483   0.000016
    33  H    0.000000   0.000000   0.000001   0.000000   0.000001   0.000000
    34  H    0.000000   0.000000  -0.000001   0.000010   0.000013   0.000000
    35  H    0.000000   0.000000   0.000000   0.000000  -0.000001   0.000000
    36  H    0.000000   0.000000   0.000000   0.000000   0.000000   0.000000
    37  H    0.000000   0.000000   0.000000   0.000000   0.000007   0.000000
    38  H    0.036138   0.001439   0.002745   0.000022   0.007536  -0.011112
    39  H    0.003047  -0.002695  -0.013749   0.002314  -0.000036   0.000268
    40  H   -0.023727   0.001680  -0.005431   0.001915   0.000358   0.000642
    41  H   -0.097129   0.001062  -0.002258   0.000973   0.001153  -0.006718
[...]
 -----------------------------------------------------------------
    1 Atom    -17.865028      0.006699     -0.000042     -0.001011
    2 Atom    -14.284322     -0.004267      0.010723     -0.003588
    3 Atom    -14.325262     -0.003098      0.003012     -0.000684
    4 Atom    -14.297070     -0.000620      0.000027      0.000134
    5 Atom    -14.325648     -0.002842     -0.002944      0.001648
    6 Atom    -14.284561     -0.003256     -0.010655      0.004613
    7 Atom    -14.297070      0.000620      0.000033     -0.000132
    8 Atom    -14.325647      0.002837     -0.002946     -0.001650
    9 Atom    -14.284555      0.003263     -0.010657     -0.004622
   10 Atom    -17.865029     -0.006697     -0.000034      0.001016
   11 Atom    -14.284326      0.004259      0.010716      0.003593
   12 Atom    -14.325262      0.003103      0.003009      0.000684
   13 Atom    -14.298720     -0.011309     -0.000488      0.002702
   14 Atom    -14.338041     -0.000280      0.000473     -0.001212
   15 Atom    -14.300606      0.007528     -0.003300      0.008520
   16 Atom    -17.868113      0.003045     -0.001445      0.003754
   17 Atom    -14.298719      0.011309     -0.000487     -0.002704
   18 Atom    -14.338043      0.000280      0.000473      0.001213
   19 Atom    -14.300605     -0.007529     -0.003289     -0.008523
   20 Atom    -17.868114     -0.003046     -0.001439     -0.003756
   21 Atom     -0.652997      0.009598      0.015485     -0.008268
   22 Atom     -0.669303     -0.009624      0.016440     -0.005449
   23 Atom     -0.669748     -0.007853     -0.016296      0.008128
   24 Atom     -0.652892      0.011209     -0.015990      0.004187
   25 Atom     -0.669747      0.007855     -0.016291     -0.008136
   26 Atom     -0.652889     -0.011207     -0.015985     -0.004195
   27 Atom     -0.652998     -0.009599      0.015482      0.008277
   28 Atom     -0.669303      0.009621      0.016438      0.005459
   29 Atom     -0.682205     -0.003829     -0.017769      0.005462
   30 Atom     -0.682010     -0.002695      0.010579      0.015486
   31 Atom     -0.697466      0.003979      0.017247     -0.004781
   32 Atom     -0.697237      0.002930     -0.010530     -0.014733
   33 Atom     -0.687102     -0.004653     -0.017791      0.004842
   34 Atom     -0.687109     -0.003600      0.011026      0.015075
   35 Atom     -0.557409     -0.019541     -0.001761      0.006871
   36 Atom     -0.556848      0.002110      0.019846     -0.005932
   37 Atom     -0.556850      0.000997     -0.011741     -0.017180
   38 Atom     -0.682206      0.003826     -0.017763     -0.005479
   39 Atom     -0.682009      0.002693      0.010592     -0.015476
   40 Atom     -0.697469     -0.003980      0.017240      0.004802
   41 Atom     -0.697237     -0.002929     -0.010547      0.014722
   42 Atom     -0.687102      0.004653     -0.017784     -0.004868
   43 Atom     -0.687109      0.003598      0.011048     -0.015060
   44 Atom     -0.557410      0.019541     -0.001750     -0.006876
   45 Atom     -0.556850     -0.002111      0.019838      0.005960
   46 Atom     -0.556850     -0.000994     -0.011765      0.017165
 -----------------------------------------------------------------
 -----------------------------------------------------
    Center         ---- Electric Field Gradient ----
                     XX            YY            ZZ
 -----------------------------------------------------
    1 Atom     -812.807621   -812.773367   -812.581957
    2 Atom     -500.833428   -501.076929   -501.293164
    3 Atom     -500.821723   -500.834996   -501.213867
    4 Atom     -500.885070   -500.817829   -501.297334
    5 Atom     -500.829556   -500.842043   -501.210598
    6 Atom     -500.794364   -501.060519   -501.342824
    7 Atom     -500.885070   -500.818067   -501.297086
    8 Atom     -500.829580   -500.842216   -501.210345
    9 Atom     -500.794440   -501.060566   -501.342809
   10 Atom     -812.807624   -812.773284   -812.582058
   11 Atom     -500.833371   -501.077153   -501.292889
   12 Atom     -500.821706   -500.835245   -501.213690
   13 Atom     -500.908344   -500.162275   -500.318262
   14 Atom     -500.388687   -500.151662   -500.279496
   15 Atom     -500.567088   -500.180257   -500.584033
   16 Atom     -812.226876   -812.205052   -812.264426
   17 Atom     -500.908316   -500.162154   -500.318363
   18 Atom     -500.388693   -500.151529   -500.279588
   19 Atom     -500.567189   -500.179798   -500.584448
   20 Atom     -812.226902   -812.204974   -812.264485
   21 Atom       -1.769873     -1.908558     -1.708866
   22 Atom       -1.765329     -1.955583     -1.666720
   23 Atom       -1.730515     -1.948602     -1.706833
   24 Atom       -1.807094     -1.926768     -1.653189
   25 Atom       -1.730517     -1.948415     -1.707016
   26 Atom       -1.807040     -1.926704     -1.653265
   27 Atom       -1.769909     -1.908359     -1.709040
   28 Atom       -1.765326     -1.955474     -1.666834
   29 Atom       -1.712732     -2.066187     -1.698462
   30 Atom       -1.706198     -1.820403     -1.953074
   31 Atom       -1.708997     -2.064539     -1.703356
   32 Atom       -1.700489     -1.822931     -1.954811
   33 Atom       -1.709205     -2.051087     -1.697874
   34 Atom       -1.698548     -1.821327     -1.938078
   35 Atom       -1.952131     -1.528105     -1.586844
   36 Atom       -1.552370     -1.998310     -1.580037
   37 Atom       -1.546639     -1.707164     -1.876928
   38 Atom       -1.712711     -2.065960     -1.698667
   39 Atom       -1.706213     -1.820822     -1.952679
   40 Atom       -1.709011     -2.064263     -1.703597
   41 Atom       -1.700463     -1.823414     -1.954380
   42 Atom       -1.709226     -2.050805     -1.698159
   43 Atom       -1.698524     -1.821887     -1.937550
   44 Atom       -1.952091     -1.528053     -1.586939
   45 Atom       -1.552371     -1.997941     -1.580402
   46 Atom       -1.546629     -1.707818     -1.876295
 -----------------------------------------------------
 -----------------------------------------------------
    Center         ---- Electric Field Gradient ----
                     XY            XZ            YZ
 -----------------------------------------------------
    1 Atom        0.028077      0.069216      0.093800
    2 Atom        0.143117     -0.169398     -0.153072
    3 Atom       -0.067687     -0.055401     -0.184213
    4 Atom       -0.030476     -0.061100     -0.216987
    5 Atom        0.007359     -0.076641     -0.198037
    6 Atom       -0.200480     -0.031456     -0.092215
    7 Atom        0.030545     -0.061092      0.217246
    8 Atom       -0.007286     -0.076653      0.198246
    9 Atom        0.200489     -0.031391      0.092413
   10 Atom       -0.028149      0.069166     -0.093899
   11 Atom       -0.143046     -0.169501      0.153137
   12 Atom        0.067749     -0.055388      0.184408
   13 Atom       -0.020144      0.146757      0.056457
   14 Atom        0.022718     -0.035491      0.053599
   15 Atom        0.128916     -0.317174      0.178954
   16 Atom        0.028770     -0.077821      0.027665
   17 Atom        0.020015      0.146822     -0.056306
   18 Atom       -0.022736     -0.035479     -0.053450
   19 Atom       -0.128542     -0.317341     -0.178403
   20 Atom       -0.028666     -0.077870     -0.027578
   21 Atom       -0.163464      0.094546      0.145963
   22 Atom        0.183583     -0.054335      0.106164
   23 Atom       -0.147315      0.075645      0.155171
   24 Atom        0.200618     -0.045779      0.079156
   25 Atom        0.147272      0.075736     -0.155314
   26 Atom       -0.200574     -0.045874     -0.079301
   27 Atom        0.163426      0.094659     -0.146075
   28 Atom       -0.183553     -0.054431     -0.106317
   29 Atom       -0.069745      0.024453      0.106915
   30 Atom        0.025374      0.041780     -0.206883
   31 Atom       -0.083521      0.017232      0.105336
   32 Atom        0.041280      0.046738     -0.202745
   33 Atom       -0.094637      0.010732      0.099409
   34 Atom        0.054962      0.050087     -0.198486
   35 Atom       -0.041422      0.158212      0.017069
   36 Atom       -0.063306      0.015380      0.130805
   37 Atom        0.024635      0.030385     -0.234442
   38 Atom        0.069703      0.024518     -0.107282
   39 Atom       -0.025411      0.041750      0.207016
   40 Atom        0.083546      0.017345     -0.105755
   41 Atom       -0.041269      0.046603      0.202915
   42 Atom        0.094635      0.010872     -0.099909
   43 Atom       -0.054990      0.049957      0.198662
   44 Atom        0.041175      0.158325     -0.016984
   45 Atom        0.063292      0.015471     -0.131388
   46 Atom       -0.024633      0.030288      0.234683
 -----------------------------------------------------
 -----------------------------------------------------
    Center         ---- Electric Field Gradient ----
                   ----       Eigenvalues       ----
 -----------------------------------------------------
    1 Atom     -812.827293   -812.811667   -812.523985
    2 Atom     -501.388442   -501.127587   -500.687491
    3 Atom     -501.301054   -500.832898   -500.736633
    4 Atom     -501.390096   -500.876211   -500.733926
    5 Atom     -501.306391   -500.836898   -500.738908
    6 Atom     -501.385655   -501.125633   -500.686418
    7 Atom     -501.390090   -500.876208   -500.733925
    8 Atom     -501.306365   -500.836886   -500.738890
    9 Atom     -501.385765   -501.125578   -500.686472
   10 Atom     -812.827286   -812.811680   -812.523999
   11 Atom     -501.388328   -501.127649   -500.687436
   12 Atom     -501.301083   -500.832908   -500.736650
   13 Atom     -500.944187   -500.301745   -500.142949
   14 Atom     -500.404955   -500.283071   -500.131818
   15 Atom     -500.954438   -500.264849   -500.112091
   16 Atom     -812.337519   -812.194218   -812.164617
   17 Atom     -500.944182   -500.301713   -500.142938
   18 Atom     -500.404950   -500.283057   -500.131802
   19 Atom     -500.954463   -500.264868   -500.112104
   20 Atom     -812.337526   -812.194218   -812.164617
   21 Atom       -2.095082     -1.661731     -1.630484
   22 Atom       -2.099893     -1.656799     -1.630940
   23 Atom       -2.098848     -1.656444     -1.630658
   24 Atom       -2.094966     -1.661553     -1.630533
   25 Atom       -2.098848     -1.656444     -1.630657
   26 Atom       -2.094939     -1.661544     -1.630526
   27 Atom       -2.095093     -1.661732     -1.630484
   28 Atom       -2.099893     -1.656799     -1.630941
   29 Atom       -2.108734     -1.699962     -1.668686
   30 Atom       -2.109874     -1.700856     -1.668946
   31 Atom       -2.111041     -1.692427     -1.673425
   32 Atom       -2.111448     -1.693088     -1.673695
   33 Atom       -2.099911     -1.694257     -1.663998
   34 Atom       -2.099898     -1.694145     -1.663910
   35 Atom       -2.015242     -1.528372     -1.523466
   36 Atom       -2.044458     -1.545859     -1.540400
   37 Atom       -2.044440     -1.545890     -1.540401
   38 Atom       -2.108714     -1.699947     -1.668676
   39 Atom       -2.109887     -1.700872     -1.668955
   40 Atom       -2.111032     -1.692418     -1.673420
   41 Atom       -2.111461     -1.693096     -1.673700
   42 Atom       -2.099920     -1.694265     -1.664005
   43 Atom       -2.099905     -1.694145     -1.663911
   44 Atom       -2.015244     -1.528372     -1.523467
   45 Atom       -2.044457     -1.545858     -1.540399
   46 Atom       -2.044447     -1.545893     -1.540402
 -----------------------------------------------------
 -----------------------------------------------------
    Center         ---- Electric Field Gradient ----
                       ( tensor representation )
                   3XX-RR        3YY-RR        3ZZ-RR
 -----------------------------------------------------
    1 Atom       -0.086639     -0.052385      0.139025
    2 Atom        0.234413     -0.009089     -0.225323
    3 Atom        0.135139      0.121866     -0.257005
    4 Atom        0.115008      0.182249     -0.297257
    5 Atom        0.131176      0.118689     -0.249866
    6 Atom        0.271538      0.005384     -0.276922
    7 Atom        0.115004      0.182007     -0.297011
    8 Atom        0.131133      0.118498     -0.249631
    9 Atom        0.271498      0.005373     -0.276871
   10 Atom       -0.086635     -0.052295      0.138931
   11 Atom        0.234433     -0.009349     -0.225084
   12 Atom        0.135174      0.121636     -0.256810
   13 Atom       -0.445383      0.300686      0.144698
   14 Atom       -0.115405      0.121620     -0.006215
   15 Atom       -0.123295      0.263536     -0.140240
   16 Atom        0.005242      0.027066     -0.032308
   17 Atom       -0.445371      0.300790      0.144581
   18 Atom       -0.115423      0.121741     -0.006318
   19 Atom       -0.123377      0.264013     -0.140637
   20 Atom        0.005218      0.027146     -0.032364
   21 Atom        0.025893     -0.112792      0.086899
   22 Atom        0.030548     -0.159705      0.129157
   23 Atom        0.064802     -0.153286      0.088484
   24 Atom       -0.011410     -0.131084      0.142495
   25 Atom        0.064799     -0.153099      0.088300
   26 Atom       -0.011370     -0.131034      0.142404
   27 Atom        0.025860     -0.112590      0.086730
   28 Atom        0.030552     -0.159596      0.129044
   29 Atom        0.113062     -0.240393      0.127332
   30 Atom        0.120360      0.006155     -0.126516
   31 Atom        0.116634     -0.238909      0.122275
   32 Atom        0.125588      0.003146     -0.128734
   33 Atom        0.110183     -0.231698      0.121515
   34 Atom        0.120769     -0.002009     -0.118760
   35 Atom       -0.263104      0.160922      0.102182
   36 Atom        0.157869     -0.288071      0.130202
   37 Atom        0.163605      0.003079     -0.166684
   38 Atom        0.113068     -0.240181      0.127112
   39 Atom        0.120358      0.005749     -0.126108
   40 Atom        0.116613     -0.238639      0.122027
   41 Atom        0.125623      0.002672     -0.128294
   42 Atom        0.110171     -0.231409      0.121238
   43 Atom        0.120797     -0.002567     -0.118230
   44 Atom       -0.263063      0.160974      0.102089
   45 Atom        0.157867     -0.287703      0.129836
   46 Atom        0.163618      0.002430     -0.166048
 -----------------------------------------------------
 -----------------------------------------------------
    Center         ---- Electric Field Gradient ----
                       ( tensor representation )
                   ----       Eigenvalues       ----
 -----------------------------------------------------
    1 Atom       -0.106311     -0.090686      0.196997
    2 Atom       -0.320602     -0.059747      0.380349
    3 Atom       -0.344192      0.123963      0.220229
    4 Atom       -0.390018      0.123867      0.266151
    5 Atom       -0.345658      0.123834      0.221824
    6 Atom       -0.319753     -0.059731      0.379484
    7 Atom       -0.390015      0.123866      0.266149
    8 Atom       -0.345651      0.123827      0.221824
    9 Atom       -0.319826     -0.059640      0.379466
   10 Atom       -0.106297     -0.090692      0.196989
   11 Atom       -0.320524     -0.059844      0.380368
   12 Atom       -0.344203      0.123973      0.220230
   13 Atom       -0.481227      0.161216      0.320011
   14 Atom       -0.131674     -0.009790      0.141463
   15 Atom       -0.510646      0.178944      0.331702
   16 Atom       -0.105401      0.037900      0.067501
   17 Atom       -0.481238      0.161231      0.320007
   18 Atom       -0.131680     -0.009787      0.141468
   19 Atom       -0.510651      0.178944      0.331707
   20 Atom       -0.105406      0.037903      0.067503
   21 Atom       -0.299316      0.134035      0.165282
   22 Atom       -0.304015      0.139078      0.164937
   23 Atom       -0.303531      0.138872      0.164659
   24 Atom       -0.299282      0.134131      0.165151
   25 Atom       -0.303532      0.138873      0.164659
   26 Atom       -0.299269      0.134126      0.165144
   27 Atom       -0.299323      0.134038      0.165286
   28 Atom       -0.304015      0.139079      0.164937
   29 Atom       -0.282940      0.125832      0.157108
   30 Atom       -0.283315      0.125703      0.157612
   31 Atom       -0.285410      0.133204      0.152206
   32 Atom       -0.285371      0.132989      0.152382
   33 Atom       -0.280523      0.125132      0.155391
   34 Atom       -0.280581      0.125173      0.155408
   35 Atom       -0.326216      0.160655      0.165561
   36 Atom       -0.334219      0.164380      0.169839
   37 Atom       -0.334197      0.164353      0.169843
   38 Atom       -0.282935      0.125832      0.157103
   39 Atom       -0.283316      0.125699      0.157616
   40 Atom       -0.285409      0.133206      0.152203
   41 Atom       -0.285375      0.132989      0.152386
   42 Atom       -0.280523      0.125132      0.155391
   43 Atom       -0.280585      0.125175      0.155410
   44 Atom       -0.326217      0.160656      0.165561
   45 Atom       -0.334219      0.164380      0.169839
   46 Atom       -0.334200      0.164355      0.169845
 -----------------------------------------------------

 Test job not archived.
 1|1|UNPC-NP-ALMACH|FOpt|RB3LYP|6-311++G(d,p)|C16H26N4(4+)|HERA|07-Sep-
 2018|0||# RB3LYP/6-311++G** Opt Test prop=EFG||C16N4H26||4,1|N,2.59631
 81146,-2.0182660841,-1.2937640358|C,1.3660869581,-2.5780932867,-1.1955
 5334|C,0.2915742908,-1.8648337318,-0.6921147152|C,0.4647985735,-0.5419
 367199,-0.2578375223|C,1.7452367683,0.0183612637,-0.3875469615|C,2.785
 4694315,-0.7342615813,-0.903561732|C,-0.6645295549,0.2406983674,0.3343
 298633|C,-0.471525058,1.0486998768,1.4657230085|C,-1.5199637554,1.7937
 792034,1.9761517165|N,-2.7476330011,1.7620195516,1.4031016547|C,-2.965
 7239979,0.9768438162,0.3202329034|C,-1.9513576901,0.2077524836,-0.2240
 261713|C,-3.8398758461,2.6621796805,1.9151334854|C,-4.6998834847,2.035
 6190928,3.0360748993|C,-5.771438576,3.0509241598,3.4764060849|N,-6.664
 326202,2.5140183969,4.5861424613|C,3.7675570512,-2.8451086778,-1.75203
 91573|C,4.0431591266,-2.7613364515,-3.2704903568|C,5.2612612855,-3.640
 7309272,-3.6109059445|N,5.6067545997,-3.612197544,-5.0930914538|H,1.27
 06206126,-3.6120023479,-1.5023241446|H,-0.6597184108,-2.375700457,-0.6
 08106717|H,1.95459338,1.0412379113,-0.0995962877|H,3.787609604,-0.3346
 466096,-0.9953684389|H,0.4848997016,1.1084513038,1.9704037392|H,-1.394
 2678477,2.44151477,2.8346718741|H,-3.9579033267,1.0007734437,-0.112423
 2882|H,-2.1775071094,-0.374884054,-1.1085549529|H,-3.3484968033,3.5739
 966705,2.257224358|H,-4.4494301556,2.925473048,1.0499240659|H,-5.17455
 81981,1.119285846,2.6710432586|H,-4.0636610008,1.7667500906,3.88534860
 63|H,-5.3275906164,3.9673095957,3.8686744762|H,-6.4417234235,3.3171486
 997,2.6576001093|H,-7.3646983176,3.2188927203,4.854591997|H,-7.1855281
 353,1.6747060756,4.3048484205|H,-6.1407939769,2.2809968875,5.438690441
 6|H,4.6274604911,-2.5022828617,-1.1750354328|H,3.5567031757,-3.8701008
 684,-1.4447965029|H,3.1637952217,-3.1018667443,-3.8263586058|H,4.23683
 72492,-1.7223294489,-3.5555940836|H,6.1608416337,-3.3101964802,-3.0892
 367457|H,5.0879897896,-4.6897697827,-3.3657718186|H,6.4245500993,-4.20
 81345042,-5.281513974|H,4.844499998,-3.9641875885,-5.6849475405|H,5.84
 6748332,-2.6706292036,-5.4263665004||Version=EM64W-G09RevD.01|State=1-
 A|HF=-843.2088432|RMSD=3.441e-009|RMSF=8.587e-006|Dipole=-0.7131325,-0
 .6625418,-0.4849705|Quadrupole=124.315729,-97.995703,-26.320026,-166.3
 218294,-225.5752611,127.7946751|PG=C01 [X(C16H26N4)]||@


 REALITY IS FOR PEOPLE WHO CAN'T FACE SCIENCE FICTION.
 Job cpu time:       0 days  1 hours 19 minutes 27.0 seconds.
 File lengths (MBytes):  RWF=    245 Int=      0 D2E=      0 Chk=     34 Scr=      1
 Normal termination of Gaussian 09 at Fri Sep 07 15:54:32 2018.
