 Entering Link 1 = C:\G09W\l1.exe PID=      7932.
  
 Copyright (c) 1988,1990,1992,1993,1995,1998,2003,2009,2013,
            Gaussian, Inc.  All Rights Reserved.
  
 This is part of the Gaussian(R) 09 program.  It is based on
 the Gaussian(R) 03 system (copyright 2003, Gaussian, Inc.),
 the Gaussian(R) 98 system (copyright 1998, Gaussian, Inc.),
 the Gaussian(R) 94 system (copyright 1995, Gaussian, Inc.),
 the Gaussian 92(TM) system (copyright 1992, Gaussian, Inc.),
 the Gaussian 90(TM) system (copyright 1990, Gaussian, Inc.),
 the Gaussian 88(TM) system (copyright 1988, Gaussian, Inc.),
 the Gaussian 86(TM) system (copyright 1986, Carnegie Mellon
 University), and the Gaussian 82(TM) system (copyright 1983,
 Carnegie Mellon University). Gaussian is a federally registered
 trademark of Gaussian, Inc.
  
 This software contains proprietary and confidential information,
 including trade secrets, belonging to Gaussian, Inc.
  
 This software is provided under written license and may be
 used, copied, transmitted, or stored only in accord with that
 written license.
  
 The following legend is applicable only to US Government
 contracts under FAR:
  
                    RESTRICTED RIGHTS LEGEND
  
 Use, reproduction and disclosure by the US Government is
 subject to restrictions as set forth in subparagraphs (a)
 and (c) of the Commercial Computer Software - Restricted
 Rights clause in FAR 52.227-19.
  
 Gaussian, Inc.
 340 Quinnipiac St., Bldg. 40, Wallingford CT 06492
  
  
 ---------------------------------------------------------------
 Warning -- This program may not be used in any manner that
 competes with the business of Gaussian, Inc. or will provide
 assistance to any competitor of Gaussian, Inc.  The licensee
 of this program is prohibited from giving any competitor of
 Gaussian, Inc. access to this program.  By using this program,
 the user acknowledges that Gaussian, Inc. is engaged in the
 business of creating and licensing software in the field of
 computational chemistry and represents and warrants to the
 licensee that it is not a competitor of Gaussian, Inc. and that
 it will not use this program in any manner prohibited above.
 ---------------------------------------------------------------
  

 Cite this work as:
 Gaussian 09, Revision D.01,
 M. J. Frisch, G. W. Trucks, H. B. Schlegel, G. E. Scuseria, 
 M. A. Robb, J. R. Cheeseman, G. Scalmani, V. Barone, B. Mennucci, 
 G. A. Petersson, H. Nakatsuji, M. Caricato, X. Li, H. P. Hratchian, 
 A. F. Izmaylov, J. Bloino, G. Zheng, J. L. Sonnenberg, M. Hada, 
 M. Ehara, K. Toyota, R. Fukuda, J. Hasegawa, M. Ishida, T. Nakajima, 
 Y. Honda, O. Kitao, H. Nakai, T. Vreven, J. A. Montgomery, Jr., 
 J. E. Peralta, F. Ogliaro, M. Bearpark, J. J. Heyd, E. Brothers, 
 K. N. Kudin, V. N. Staroverov, T. Keith, R. Kobayashi, J. Normand, 
 K. Raghavachari, A. Rendell, J. C. Burant, S. S. Iyengar, J. Tomasi, 
 M. Cossi, N. Rega, J. M. Millam, M. Klene, J. E. Knox, J. B. Cross, 
 V. Bakken, C. Adamo, J. Jaramillo, R. Gomperts, R. E. Stratmann, 
 O. Yazyev, A. J. Austin, R. Cammi, C. Pomelli, J. W. Ochterski, 
 R. L. Martin, K. Morokuma, V. G. Zakrzewski, G. A. Voth, 
 P. Salvador, J. J. Dannenberg, S. Dapprich, A. D. Daniels, 
 O. Farkas, J. B. Foresman, J. V. Ortiz, J. Cioslowski, 
 and D. J. Fox, Gaussian, Inc., Wallingford CT, 2013.
 
 ******************************************
 Gaussian 09:  EM64W-G09RevD.01 13-Apr-2013
                07-Sep-2018 
 ******************************************
 %Chk=Anth_271.chk
 %Mem=64GB
 %NProcShared=20
 Will use up to   20 processors via shared memory.
 -------------------------------------
 # RB3LYP/6-311++G** Opt Test prop=EFG
 -------------------------------------
 1/14=-1,18=20,19=15,26=3,38=1/1,3;
 2/9=110,12=2,17=6,18=5,40=1/2;
 3/5=4,6=6,7=1111,11=2,16=1,25=1,30=1,71=1,74=-5,116=1/1,2,3;
 4//1;
 5/5=2,38=5/2;
 6/7=2,8=2,9=2,10=2,14=1,28=1/1,2;
 7//1,2,3,16;
 1/14=-1,18=20,19=15,26=3/3(2);
 2/9=110/2;
 99//99;
 2/9=110/2;
 3/5=4,6=6,7=1111,11=2,16=1,25=1,30=1,71=1,74=-5,116=1/1,2,3;
 4/5=5,16=3,69=1/1;
 5/5=2,38=5/2;
 7//1,2,3,16;
 1/14=-1,18=20,19=15,26=3/3(-5);
 2/9=110/2;
 6/7=2,8=2,9=2,10=2,14=1,19=2,28=1/1,2;
 99/9=1/99;
 --------
 C19N3H23
 --------
 Symbolic Z-matrix:
 Charge =  0 Multiplicity = 1
 C                     3.61488  -0.11286  -1.40408 
 C                     3.41575  -1.11562  -0.50131 
 C                     2.16666  -1.14777   0.02897 
 C                     1.16271  -0.30348  -0.26578 
 C                     1.39033   0.66583  -1.16002 
 C                     2.61041   0.73745  -1.70623 
 N                     0.03163  -0.43268   0.2937 
 C                    -0.92899   0.35209   0.02828 
 C                    -0.78976   1.34977  -0.8528 
 C                     0.39472   1.5141   -1.46336 
 C                    -2.11905   0.19823   0.63459 
 C                    -3.2181    0.97043   0.43894 
 C                    -3.04324   1.97321  -0.46881 
 C                    -1.85006   2.13483  -1.0799 
 C                     4.9056    0.19778  -2.14771 
 N                     4.26452  -2.00548  -0.1144 
 N                    -4.28482   0.6917    1.10708 
 C                    -4.08767   2.98414  -0.91882 
 C                    -5.53287   1.48799   1.00644 
 C                    -4.30679  -0.47362   2.04526 
 C                     3.87983  -3.02042   0.91548 
 C                     5.64467  -2.09386  -0.65218 
 H                     1.86379  -1.9045    0.76869 
 H                     2.78026   1.54467  -2.43898 
 H                     0.54597   2.32486  -2.19506 
 H                    -2.11485  -0.64642   1.34035 
 H                    -1.71736   2.94995  -1.8116 
 H                     4.86332   1.13771  -2.74089 
 H                     5.75493   0.38809  -1.45876 
 H                     5.14122  -0.57912  -2.90694 
 H                    -4.99212   2.49783  -1.34036 
 H                    -4.33272   3.70994  -0.1134 
 H                    -3.74994   3.63046  -1.75867 
 H                    -5.37531   2.55393   1.27205 
 H                    -6.04323   1.32988   0.03201 
 H                    -6.28083   1.15673   1.75945 
 H                    -3.61703  -0.32183   2.90694 
 H                    -5.31012  -0.60812   2.50511 
 H                    -4.1227   -1.43651   1.51606 
 H                     3.60501  -2.54506   1.88481 
 H                     3.08956  -3.70994   0.53952 
 H                     4.73453  -3.68265   1.17465 
 H                     5.65986  -2.23516  -1.75282 
 H                     6.28083  -1.25797  -0.28951 
 H                     6.16105  -3.0061   -0.28156 
 

 GradGradGradGradGradGradGradGradGradGradGradGradGradGradGradGradGradGrad
 Berny optimization.
 Initialization pass.
                           ----------------------------
                           !    Initial Parameters    !
                           ! (Angstroms and Degrees)  !
 --------------------------                            --------------------------
 ! Name  Definition              Value          Derivative Info.                !
 --------------------------------------------------------------------------------
 ! R1    R(1,2)                  1.3639         estimate D2E/DX2                !
 ! R2    R(1,6)                  1.3503         estimate D2E/DX2                !
 ! R3    R(1,15)                 1.5217         estimate D2E/DX2                !
 ! R4    R(2,3)                  1.3574         estimate D2E/DX2                !
 ! R5    R(2,16)                 1.2892         estimate D2E/DX2                !
 ! R6    R(3,4)                  1.3445         estimate D2E/DX2                !
 ! R7    R(3,23)                 1.1007         estimate D2E/DX2                !
 ! R8    R(4,5)                  1.3383         estimate D2E/DX2                !
 ! R9    R(4,7)                  1.2685         estimate D2E/DX2                !
 ! R10   R(5,6)                  1.3387         estimate D2E/DX2                !
 ! R11   R(5,10)                 1.3427         estimate D2E/DX2                !
 ! R12   R(6,24)                 1.1034         estimate D2E/DX2                !
 ! R13   R(7,8)                  1.2685         estimate D2E/DX2                !
 ! R14   R(8,9)                  1.3383         estimate D2E/DX2                !
 ! R15   R(8,11)                 1.3444         estimate D2E/DX2                !
 ! R16   R(9,10)                 1.3427         estimate D2E/DX2                !
 ! R17   R(9,14)                 1.3387         estimate D2E/DX2                !
 ! R18   R(10,25)                1.1025         estimate D2E/DX2                !
 ! R19   R(11,12)                1.3574         estimate D2E/DX2                !
 ! R20   R(11,26)                1.1007         estimate D2E/DX2                !
 ! R21   R(12,13)                1.3639         estimate D2E/DX2                !
 ! R22   R(12,17)                1.2892         estimate D2E/DX2                !
 ! R23   R(13,14)                1.3503         estimate D2E/DX2                !
 ! R24   R(13,18)                1.5216         estimate D2E/DX2                !
 ! R25   R(14,27)                1.1034         estimate D2E/DX2                !
 ! R26   R(15,28)                1.1123         estimate D2E/DX2                !
 ! R27   R(15,29)                1.1101         estimate D2E/DX2                !
 ! R28   R(15,30)                1.1115         estimate D2E/DX2                !
 ! R29   R(16,21)                1.4962         estimate D2E/DX2                !
 ! R30   R(16,22)                1.4839         estimate D2E/DX2                !
 ! R31   R(17,19)                1.4839         estimate D2E/DX2                !
 ! R32   R(17,20)                1.4962         estimate D2E/DX2                !
 ! R33   R(18,31)                1.1101         estimate D2E/DX2                !
 ! R34   R(18,32)                1.1115         estimate D2E/DX2                !
 ! R35   R(18,33)                1.1123         estimate D2E/DX2                !
 ! R36   R(19,34)                1.1098         estimate D2E/DX2                !
 ! R37   R(19,35)                1.1113         estimate D2E/DX2                !
 ! R38   R(19,36)                1.1118         estimate D2E/DX2                !
 ! R39   R(20,37)                1.1141         estimate D2E/DX2                !
 ! R40   R(20,38)                1.1119         estimate D2E/DX2                !
 ! R41   R(20,39)                1.114          estimate D2E/DX2                !
 ! R42   R(21,40)                1.114          estimate D2E/DX2                !
 ! R43   R(21,41)                1.1141         estimate D2E/DX2                !
 ! R44   R(21,42)                1.1119         estimate D2E/DX2                !
 ! R45   R(22,43)                1.1098         estimate D2E/DX2                !
 ! R46   R(22,44)                1.1113         estimate D2E/DX2                !
 ! R47   R(22,45)                1.1118         estimate D2E/DX2                !
 ! A1    A(2,1,6)              120.1647         estimate D2E/DX2                !
 ! A2    A(2,1,15)             126.6852         estimate D2E/DX2                !
 ! A3    A(6,1,15)             113.1465         estimate D2E/DX2                !
 ! A4    A(1,2,3)              114.2277         estimate D2E/DX2                !
 ! A5    A(1,2,16)             127.5912         estimate D2E/DX2                !
 ! A6    A(3,2,16)             118.1812         estimate D2E/DX2                !
 ! A7    A(2,3,4)              125.9183         estimate D2E/DX2                !
 ! A8    A(2,3,23)             122.1435         estimate D2E/DX2                !
 ! A9    A(4,3,23)             111.937          estimate D2E/DX2                !
 ! A10   A(3,4,5)              118.3142         estimate D2E/DX2                !
 ! A11   A(3,4,7)              120.3432         estimate D2E/DX2                !
 ! A12   A(5,4,7)              121.3425         estimate D2E/DX2                !
 ! A13   A(4,5,6)              117.8011         estimate D2E/DX2                !
 ! A14   A(4,5,10)             118.8433         estimate D2E/DX2                !
 ! A15   A(6,5,10)             123.3555         estimate D2E/DX2                !
 ! A16   A(1,6,5)              123.5729         estimate D2E/DX2                !
 ! A17   A(1,6,24)             119.6568         estimate D2E/DX2                !
 ! A18   A(5,6,24)             116.7702         estimate D2E/DX2                !
 ! A19   A(4,7,8)              121.3293         estimate D2E/DX2                !
 ! A20   A(7,8,9)              121.3435         estimate D2E/DX2                !
 ! A21   A(7,8,11)             120.343          estimate D2E/DX2                !
 ! A22   A(9,8,11)             118.3134         estimate D2E/DX2                !
 ! A23   A(8,9,10)             118.8416         estimate D2E/DX2                !
 ! A24   A(8,9,14)             117.8048         estimate D2E/DX2                !
 ! A25   A(10,9,14)            123.3535         estimate D2E/DX2                !
 ! A26   A(5,10,9)             118.2998         estimate D2E/DX2                !
 ! A27   A(5,10,25)            120.8495         estimate D2E/DX2                !
 ! A28   A(9,10,25)            120.8507         estimate D2E/DX2                !
 ! A29   A(8,11,12)            125.917          estimate D2E/DX2                !
 ! A30   A(8,11,26)            111.9376         estimate D2E/DX2                !
 ! A31   A(12,11,26)           122.1443         estimate D2E/DX2                !
 ! A32   A(11,12,13)           114.2295         estimate D2E/DX2                !
 ! A33   A(11,12,17)           118.1821         estimate D2E/DX2                !
 ! A34   A(13,12,17)           127.5885         estimate D2E/DX2                !
 ! A35   A(12,13,14)           120.1663         estimate D2E/DX2                !
 ! A36   A(12,13,18)           126.6777         estimate D2E/DX2                !
 ! A37   A(14,13,18)           113.1522         estimate D2E/DX2                !
 ! A38   A(9,14,13)            123.5679         estimate D2E/DX2                !
 ! A39   A(9,14,27)            116.7736         estimate D2E/DX2                !
 ! A40   A(13,14,27)           119.6584         estimate D2E/DX2                !
 ! A41   A(1,15,28)            113.6348         estimate D2E/DX2                !
 ! A42   A(1,15,29)            112.3768         estimate D2E/DX2                !
 ! A43   A(1,15,30)            111.7724         estimate D2E/DX2                !
 ! A44   A(28,15,29)           102.4275         estimate D2E/DX2                !
 ! A45   A(28,15,30)           103.5579         estimate D2E/DX2                !
 ! A46   A(29,15,30)           112.4304         estimate D2E/DX2                !
 ! A47   A(2,16,21)            120.3663         estimate D2E/DX2                !
 ! A48   A(2,16,22)            123.0047         estimate D2E/DX2                !
 ! A49   A(21,16,22)           116.6278         estimate D2E/DX2                !
 ! A50   A(12,17,19)           123.0094         estimate D2E/DX2                !
 ! A51   A(12,17,20)           120.3651         estimate D2E/DX2                !
 ! A52   A(19,17,20)           116.6242         estimate D2E/DX2                !
 ! A53   A(13,18,31)           112.365          estimate D2E/DX2                !
 ! A54   A(13,18,32)           111.7677         estimate D2E/DX2                !
 ! A55   A(13,18,33)           113.6375         estimate D2E/DX2                !
 ! A56   A(31,18,32)           112.433          estimate D2E/DX2                !
 ! A57   A(31,18,33)           102.4289         estimate D2E/DX2                !
 ! A58   A(32,18,33)           103.5704         estimate D2E/DX2                !
 ! A59   A(17,19,34)           112.3209         estimate D2E/DX2                !
 ! A60   A(17,19,35)           111.6773         estimate D2E/DX2                !
 ! A61   A(17,19,36)           111.0999         estimate D2E/DX2                !
 ! A62   A(34,19,35)           114.3131         estimate D2E/DX2                !
 ! A63   A(34,19,36)           102.6846         estimate D2E/DX2                !
 ! A64   A(35,19,36)           104.0352         estimate D2E/DX2                !
 ! A65   A(17,20,37)           111.7009         estimate D2E/DX2                !
 ! A66   A(17,20,38)           111.5188         estimate D2E/DX2                !
 ! A67   A(17,20,39)           111.894          estimate D2E/DX2                !
 ! A68   A(37,20,38)           104.7899         estimate D2E/DX2                !
 ! A69   A(37,20,39)           112.5093         estimate D2E/DX2                !
 ! A70   A(38,20,39)           103.9466         estimate D2E/DX2                !
 ! A71   A(16,21,40)           111.8933         estimate D2E/DX2                !
 ! A72   A(16,21,41)           111.7096         estimate D2E/DX2                !
 ! A73   A(16,21,42)           111.5194         estimate D2E/DX2                !
 ! A74   A(40,21,41)           112.5018         estimate D2E/DX2                !
 ! A75   A(40,21,42)           103.9431         estimate D2E/DX2                !
 ! A76   A(41,21,42)           104.7916         estimate D2E/DX2                !
 ! A77   A(16,22,43)           112.3182         estimate D2E/DX2                !
 ! A78   A(16,22,44)           111.6768         estimate D2E/DX2                !
 ! A79   A(16,22,45)           111.1024         estimate D2E/DX2                !
 ! A80   A(43,22,44)           114.3054         estimate D2E/DX2                !
 ! A81   A(43,22,45)           102.6962         estimate D2E/DX2                !
 ! A82   A(44,22,45)           104.0335         estimate D2E/DX2                !
 ! D1    D(6,1,2,3)             -0.3612         estimate D2E/DX2                !
 ! D2    D(6,1,2,16)           179.6174         estimate D2E/DX2                !
 ! D3    D(15,1,2,3)           178.8958         estimate D2E/DX2                !
 ! D4    D(15,1,2,16)           -1.1256         estimate D2E/DX2                !
 ! D5    D(2,1,6,5)              0.2093         estimate D2E/DX2                !
 ! D6    D(2,1,6,24)          -179.9004         estimate D2E/DX2                !
 ! D7    D(15,1,6,5)          -179.1427         estimate D2E/DX2                !
 ! D8    D(15,1,6,24)            0.7476         estimate D2E/DX2                !
 ! D9    D(2,1,15,28)         -173.0461         estimate D2E/DX2                !
 ! D10   D(2,1,15,29)          -57.3117         estimate D2E/DX2                !
 ! D11   D(2,1,15,30)           70.1886         estimate D2E/DX2                !
 ! D12   D(6,1,15,28)            6.2553         estimate D2E/DX2                !
 ! D13   D(6,1,15,29)          121.9897         estimate D2E/DX2                !
 ! D14   D(6,1,15,30)         -110.51           estimate D2E/DX2                !
 ! D15   D(1,2,3,4)              0.2831         estimate D2E/DX2                !
 ! D16   D(1,2,3,23)           179.8588         estimate D2E/DX2                !
 ! D17   D(16,2,3,4)          -179.6976         estimate D2E/DX2                !
 ! D18   D(16,2,3,23)           -0.1219         estimate D2E/DX2                !
 ! D19   D(1,2,16,21)          178.6186         estimate D2E/DX2                !
 ! D20   D(1,2,16,22)           -1.794          estimate D2E/DX2                !
 ! D21   D(3,2,16,21)           -1.4036         estimate D2E/DX2                !
 ! D22   D(3,2,16,22)          178.1838         estimate D2E/DX2                !
 ! D23   D(2,3,4,5)             -0.0235         estimate D2E/DX2                !
 ! D24   D(2,3,4,7)            179.8601         estimate D2E/DX2                !
 ! D25   D(23,3,4,5)          -179.6362         estimate D2E/DX2                !
 ! D26   D(23,3,4,7)             0.2474         estimate D2E/DX2                !
 ! D27   D(3,4,5,6)             -0.1583         estimate D2E/DX2                !
 ! D28   D(3,4,5,10)           179.93           estimate D2E/DX2                !
 ! D29   D(7,4,5,6)            179.9593         estimate D2E/DX2                !
 ! D30   D(7,4,5,10)             0.0476         estimate D2E/DX2                !
 ! D31   D(3,4,7,8)           -179.9048         estimate D2E/DX2                !
 ! D32   D(5,4,7,8)             -0.0248         estimate D2E/DX2                !
 ! D33   D(4,5,6,1)              0.0681         estimate D2E/DX2                !
 ! D34   D(4,5,6,24)          -179.8252         estimate D2E/DX2                !
 ! D35   D(10,5,6,1)           179.9755         estimate D2E/DX2                !
 ! D36   D(10,5,6,24)            0.0822         estimate D2E/DX2                !
 ! D37   D(4,5,10,9)            -0.0231         estimate D2E/DX2                !
 ! D38   D(4,5,10,25)          179.9746         estimate D2E/DX2                !
 ! D39   D(6,5,10,9)          -179.9296         estimate D2E/DX2                !
 ! D40   D(6,5,10,25)            0.0681         estimate D2E/DX2                !
 ! D41   D(4,7,8,9)             -0.0228         estimate D2E/DX2                !
 ! D42   D(4,7,8,11)          -179.8973         estimate D2E/DX2                !
 ! D43   D(7,8,9,10)             0.0457         estimate D2E/DX2                !
 ! D44   D(7,8,9,14)           179.9542         estimate D2E/DX2                !
 ! D45   D(11,8,9,10)          179.9227         estimate D2E/DX2                !
 ! D46   D(11,8,9,14)           -0.1688         estimate D2E/DX2                !
 ! D47   D(7,8,11,12)          179.8597         estimate D2E/DX2                !
 ! D48   D(7,8,11,26)            0.249          estimate D2E/DX2                !
 ! D49   D(9,8,11,12)           -0.0186         estimate D2E/DX2                !
 ! D50   D(9,8,11,26)         -179.6293         estimate D2E/DX2                !
 ! D51   D(8,9,10,5)            -0.0214         estimate D2E/DX2                !
 ! D52   D(8,9,10,25)          179.9809         estimate D2E/DX2                !
 ! D53   D(14,9,10,5)         -179.9244         estimate D2E/DX2                !
 ! D54   D(14,9,10,25)           0.0779         estimate D2E/DX2                !
 ! D55   D(8,9,14,13)            0.0698         estimate D2E/DX2                !
 ! D56   D(8,9,14,27)         -179.8163         estimate D2E/DX2                !
 ! D57   D(10,9,14,13)         179.9738         estimate D2E/DX2                !
 ! D58   D(10,9,14,27)           0.0877         estimate D2E/DX2                !
 ! D59   D(8,11,12,13)           0.2926         estimate D2E/DX2                !
 ! D60   D(8,11,12,17)        -179.6922         estimate D2E/DX2                !
 ! D61   D(26,11,12,13)        179.8661         estimate D2E/DX2                !
 ! D62   D(26,11,12,17)         -0.1186         estimate D2E/DX2                !
 ! D63   D(11,12,13,14)         -0.3792         estimate D2E/DX2                !
 ! D64   D(11,12,13,18)        178.8662         estimate D2E/DX2                !
 ! D65   D(17,12,13,14)        179.6038         estimate D2E/DX2                !
 ! D66   D(17,12,13,18)         -1.1508         estimate D2E/DX2                !
 ! D67   D(11,12,17,19)        178.1685         estimate D2E/DX2                !
 ! D68   D(11,12,17,20)         -1.4057         estimate D2E/DX2                !
 ! D69   D(13,12,17,19)         -1.8139         estimate D2E/DX2                !
 ! D70   D(13,12,17,20)        178.6118         estimate D2E/DX2                !
 ! D71   D(12,13,14,9)           0.2229         estimate D2E/DX2                !
 ! D72   D(12,13,14,27)       -179.8942         estimate D2E/DX2                !
 ! D73   D(18,13,14,9)        -179.1189         estimate D2E/DX2                !
 ! D74   D(18,13,14,27)          0.7641         estimate D2E/DX2                !
 ! D75   D(12,13,18,31)        -57.2614         estimate D2E/DX2                !
 ! D76   D(12,13,18,32)         70.2288         estimate D2E/DX2                !
 ! D77   D(12,13,18,33)       -172.9914         estimate D2E/DX2                !
 ! D78   D(14,13,18,31)        122.029          estimate D2E/DX2                !
 ! D79   D(14,13,18,32)       -110.4808         estimate D2E/DX2                !
 ! D80   D(14,13,18,33)          6.299          estimate D2E/DX2                !
 ! D81   D(2,16,21,40)         -61.3124         estimate D2E/DX2                !
 ! D82   D(2,16,21,41)          65.8407         estimate D2E/DX2                !
 ! D83   D(2,16,21,42)        -177.2633         estimate D2E/DX2                !
 ! D84   D(22,16,21,40)        119.0746         estimate D2E/DX2                !
 ! D85   D(22,16,21,41)       -113.7722         estimate D2E/DX2                !
 ! D86   D(22,16,21,42)          3.1238         estimate D2E/DX2                !
 ! D87   D(2,16,22,43)         -58.3042         estimate D2E/DX2                !
 ! D88   D(2,16,22,44)          71.6335         estimate D2E/DX2                !
 ! D89   D(2,16,22,45)        -172.7024         estimate D2E/DX2                !
 ! D90   D(21,16,22,43)        121.2975         estimate D2E/DX2                !
 ! D91   D(21,16,22,44)       -108.7647         estimate D2E/DX2                !
 ! D92   D(21,16,22,45)          6.8994         estimate D2E/DX2                !
 ! D93   D(12,17,19,34)        -58.2679         estimate D2E/DX2                !
 ! D94   D(12,17,19,35)         71.6833         estimate D2E/DX2                !
 ! D95   D(12,17,19,36)       -172.6518         estimate D2E/DX2                !
 ! D96   D(20,17,19,34)        121.3212         estimate D2E/DX2                !
 ! D97   D(20,17,19,35)       -108.7276         estimate D2E/DX2                !
 ! D98   D(20,17,19,36)          6.9373         estimate D2E/DX2                !
 ! D99   D(12,17,20,37)         65.8633         estimate D2E/DX2                !
 ! D100  D(12,17,20,38)       -177.2488         estimate D2E/DX2                !
 ! D101  D(12,17,20,39)        -61.2935         estimate D2E/DX2                !
 ! D102  D(19,17,20,37)       -113.7373         estimate D2E/DX2                !
 ! D103  D(19,17,20,38)          3.1505         estimate D2E/DX2                !
 ! D104  D(19,17,20,39)        119.1059         estimate D2E/DX2                !
 --------------------------------------------------------------------------------
 Trust Radius=3.00D-01 FncErr=1.00D-07 GrdErr=1.00D-06
 Number of steps in this run=    243 maximum allowed number of steps=    270.
 GradGradGradGradGradGradGradGradGradGradGradGradGradGradGradGradGradGrad

                          Input orientation:                          
 ---------------------------------------------------------------------
 Center     Atomic      Atomic             Coordinates (Angstroms)
 Number     Number       Type             X           Y           Z
 ---------------------------------------------------------------------
      1          6           0        3.614882   -0.112864   -1.404078
      2          6           0        3.415748   -1.115617   -0.501313
      3          6           0        2.166656   -1.147772    0.028969
      4          6           0        1.162705   -0.303475   -0.265775
      5          6           0        1.390334    0.665833   -1.160018
      6          6           0        2.610407    0.737449   -1.706225
      7          7           0        0.031634   -0.432682    0.293697
      8          6           0       -0.928986    0.352086    0.028284
      9          6           0       -0.789760    1.349771   -0.852797
     10          6           0        0.394722    1.514099   -1.463360
     11          6           0       -2.119050    0.198234    0.634586
     12          6           0       -3.218099    0.970427    0.438942
     13          6           0       -3.043237    1.973211   -0.468809
     14          6           0       -1.850064    2.134826   -1.079899
     15          6           0        4.905599    0.197783   -2.147707
     16          7           0        4.264519   -2.005482   -0.114400
     17          7           0       -4.284823    0.691701    1.107075
     18          6           0       -4.087671    2.984142   -0.918817
     19          6           0       -5.532872    1.487993    1.006439
     20          6           0       -4.306789   -0.473617    2.045255
     21          6           0        3.879828   -3.020424    0.915479
     22          6           0        5.644668   -2.093861   -0.652183
     23          1           0        1.863786   -1.904497    0.768686
     24          1           0        2.780256    1.544673   -2.438984
     25          1           0        0.545971    2.324859   -2.195061
     26          1           0       -2.114851   -0.646417    1.340353
     27          1           0       -1.717356    2.949953   -1.811601
     28          1           0        4.863319    1.137714   -2.740892
     29          1           0        5.754930    0.388091   -1.458759
     30          1           0        5.141222   -0.579115   -2.906937
     31          1           0       -4.992123    2.497828   -1.340358
     32          1           0       -4.332716    3.709944   -0.113403
     33          1           0       -3.749943    3.630457   -1.758671
     34          1           0       -5.375312    2.553928    1.272051
     35          1           0       -6.043230    1.329878    0.032006
     36          1           0       -6.280832    1.156730    1.759451
     37          1           0       -3.617025   -0.321834    2.906937
     38          1           0       -5.310121   -0.608121    2.505113
     39          1           0       -4.122704   -1.436510    1.516058
     40          1           0        3.605014   -2.545063    1.884805
     41          1           0        3.089557   -3.709944    0.539517
     42          1           0        4.734527   -3.682651    1.174646
     43          1           0        5.659855   -2.235155   -1.752817
     44          1           0        6.280832   -1.257970   -0.289512
     45          1           0        6.161052   -3.006101   -0.281558
 ---------------------------------------------------------------------
                    Distance matrix (angstroms):
                    1          2          3          4          5
     1  C    0.000000
     2  C    1.363874   0.000000
     3  C    2.285173   1.357374   0.000000
     4  C    2.710210   2.406503   1.344481   0.000000
     5  C    2.369504   2.776645   2.303373   1.338299   0.000000
     6  C    1.350294   2.352497   2.600360   2.292217   1.338674
     7  N    3.977988   3.542692   2.267102   1.268473   2.272903
     8  C    4.786917   4.616421   3.439851   2.211651   2.624832
     9  C    4.673765   4.887533   3.969336   2.624869   2.305421
    10  C    3.608317   4.119167   3.528789   2.308156   1.342689
    11  C    6.093514   5.800902   4.532745   3.439808   3.969260
    12  C    7.159600   7.017377   5.800899   4.616373   4.887444
    13  C    7.039672   7.159637   6.093546   4.786906   4.673709
    14  C    5.918010   6.215217   5.304628   3.960415   3.558727
    15  C    1.521656   2.579785   3.748366   4.219263   3.681262
    16  N    2.380609   1.289176   2.270958   3.541326   4.060810
    17  N    8.328178   8.071685   6.794671   5.705318   6.111284
    18  C    8.316024   8.560586   7.555635   6.229072   5.953257
    19  C    9.594516   9.440863   8.196672   7.046888   7.300703
    20  C    8.647596   8.156884   6.813618   5.940132   6.635460
    21  C    3.728867   2.418876   2.688435   4.019942   4.908539
    22  C    2.934234   2.438813   3.668190   4.841775   5.096387
    23  H    3.316201   2.154951   1.100702   2.030984   3.248177
    24  H    2.124867   3.351949   3.703587   3.279476   2.083266
    25  H    3.998295   4.789705   4.430812   3.318229   2.129937
    26  H    6.375455   5.848026   4.505817   3.666010   4.501131
    27  H    6.162766   6.677909   5.938400   4.611846   3.911458
    28  H    2.215764   3.491229   4.490831   4.679506   3.844926
    29  H    2.198579   2.941022   4.177071   4.794789   4.383616
    30  H    2.192188   3.008674   4.217933   4.783337   4.320970
    31  H    8.994460   9.189846   8.149452   6.847184   6.642626
    32  H    8.913137   9.136477   8.115387   6.806644   6.566225
    33  H    8.269150   8.686386   7.812379   6.468282   5.964045
    34  H    9.751771   9.689846   8.492886   7.298995   7.433292
    35  H    9.870307   9.784536   8.575604   7.394729   7.557761
    36  H   10.466372  10.212653   8.925545   7.851113   8.222595
    37  H    8.421936   7.855327   6.512744   5.736921   6.526044
    38  H    9.756164   9.243210   7.894600   7.047560   7.742883
    39  H    8.375528   7.810315   6.469223   5.691594   6.478797
    40  H    4.090531   2.787956   2.732293   3.951529   4.948293
    41  H    4.122198   2.814296   2.770764   3.995658   4.992314
    42  H    4.543875   3.337316   3.785782   5.123627   5.961845
    43  H    2.967769   2.802792   4.069349   5.115373   5.195763
    44  H    3.108185   2.876427   4.127956   5.206424   5.326891
    45  H    4.014206   3.340496   4.416448   5.682245   6.083958
                    6          7          8          9         10
     6  C    0.000000
     7  N    3.466838   0.000000
     8  C    3.960345   1.268501   0.000000
     9  C    3.558709   2.272944   1.338306   0.000000
    10  C    2.360387   2.647459   2.308133   1.342680   0.000000
    11  C    5.304518   2.267091   1.344442   2.303336   3.528729
    12  C    6.215103   3.542679   2.406455   2.776567   4.119079
    13  C    5.917939   3.978011   2.710204   2.369448   3.608251
    14  C    4.716010   3.466937   2.292295   1.338705   2.360383
    15  C    2.398761   5.487575   6.229055   5.953233   4.748582
    16  N    3.576823   4.534044   5.705347   6.111357   5.402080
    17  N    7.447211   4.534051   3.541295   4.060741   5.402001
    18  C    7.108579   5.487581   4.219243   3.681269   4.748621
    19  C    8.615965   5.929648   4.841780   5.096369   6.421601
    20  C    7.961651   4.678840   4.019889   4.908456   6.193997
    21  C    4.754616   4.678848   5.940171   6.635545   6.194089
    22  C    4.281829   5.929617   7.046887   7.300734   6.421629
    23  H    3.696283   2.397631   3.666052   4.501197   4.339006
    24  H    1.103356   4.351138   4.611741   3.911392   2.577508
    25  H    2.649665   3.749999   3.318222   2.129941   1.102540
    26  H    5.790059   2.397617   2.030963   3.248159   4.338962
    27  H    4.861667   4.351260   3.279576   2.083344   2.577561
    28  H    2.511247   5.917774   6.468102   5.963822   4.662844
    29  H    3.173534   6.041596   6.847432   6.642664   5.477202
    30  H    3.095170   6.031036   6.806621   6.566326   5.384675
    31  H    7.812250   6.041205   4.794421   4.383561   5.477312
    32  H    7.718793   6.031138   4.783374   4.320840   5.384495
    33  H    6.987582   5.917908   4.679607   3.845103   4.663092
    34  H    8.714438   6.253965   5.115162   5.195408   6.469699
    35  H    8.846347   6.330803   5.206878   5.327497   6.611905
    36  H    9.552007   6.672473   5.682134   6.083829   7.421404
    37  H    7.822036   4.489323   3.995793   4.992323   6.210013
    38  H    9.070870   5.784072   5.123575   5.961758   7.266211
    39  H    7.774573   4.445263   3.951251   4.948065   6.163616
    40  H    4.965846   4.445540   5.691862   6.479061   6.163845
    41  H    5.005222   4.489072   5.736736   6.525975   6.210014
    42  H    5.687582   5.784079   7.047597   7.742967   7.266305
    43  H    4.258835   6.254119   7.299244   7.433658   6.470109
    44  H    4.411439   6.330380   7.394238   7.557174   6.611246
    45  H    5.352656   6.672568   7.851246   8.222756   7.421551
                   11         12         13         14         15
    11  C    0.000000
    12  C    1.357375   0.000000
    13  C    2.285201   1.363878   0.000000
    14  C    2.600423   2.352493   1.350264   0.000000
    15  C    7.555584   8.560502   8.315939   7.108539   0.000000
    16  N    6.794652   8.071666   8.328199   7.447313   3.065893
    17  N    2.270975   1.289182   2.380591   3.576803   9.762244
    18  C    3.748308   2.579673   1.521621   2.398785   9.494887
    19  C    3.668233   2.438873   2.934293   4.281854  10.980663
    20  C    2.688415   2.418832   3.728813   4.754583  10.143954
    21  C    6.813604   8.156871   8.647628   7.961771   4.559843
    22  C    8.196633   9.440818   9.594498   8.616017   2.834510
    23  H    4.505823   5.848032   6.375491   5.790171   4.709305
    24  H    5.938260   6.677760   6.162654   4.861610   2.532990
    25  H    4.430776   4.789643   3.998252   2.649657   4.851088
    26  H    1.100709   2.154967   3.316236   3.696356   7.884539
    27  H    3.703667   3.351969   2.124871   1.103373   7.179898
    28  H    7.812167   8.686118   8.268860   6.987320   1.112262
    29  H    8.149706   9.189975   8.994462   7.812205   1.110058
    30  H    8.115307   9.136423   8.913148   7.718913   1.111539
    31  H    4.176492   2.940412   2.198403   3.173664  10.193474
    32  H    4.218046   3.008722   2.192102   3.094943  10.090596
    33  H    4.490840   3.491149   2.215771   2.511411   9.319496
    34  H    4.069263   2.802698   2.967558   4.258484  11.087980
    35  H    4.128306   2.876833   3.108802   4.412133  11.220947
    36  H    4.416386   3.340477   4.014200   5.352596  11.887880
    37  H    2.770917   2.814264   4.122151   5.005216   9.922426
    38  H    3.785765   3.337279   4.543814   5.687536  11.254295
    39  H    2.732034   2.787801   4.090372   4.965715   9.879491
    40  H    6.469439   7.810510   8.375771   7.774877   5.047364
    41  H    6.512486   7.855095   8.421766   7.822001   5.078337
    42  H    7.894584   9.243195   9.756195   9.070989   5.111268
    43  H    8.493082   9.690079   9.752068   8.714840   2.577601
    44  H    8.575110   9.783971   9.869698   8.845747   2.731917
    45  H    8.925647  10.212755  10.466496   9.552197   3.914530
                   16         17         18         19         20
    16  N    0.000000
    17  N    9.047544   0.000000
    18  C    9.762301   3.065680   0.000000
    19  C   10.461812   1.483858   2.834374   0.000000
    20  C    8.970955   1.496205   4.559587   2.535810   0.000000
    21  C    1.496244   8.970959  10.143988  10.437098   8.647735
    22  C    1.483857  10.461794  10.980694  11.854033  10.437091
    23  H    2.559992   6.682825   7.884561   8.141011   6.461659
    24  H    4.495590   7.950939   7.179930   8.999014   8.626013
    25  H    6.075245   6.075185   4.851195   6.921147   7.025740
    26  H    6.682793   2.560031   4.709228   4.043522   2.308969
    27  H    7.951079   4.495582   2.533106   4.963551   5.770731
    28  H    4.139650   9.934499   9.319307  11.056490  10.468738
    29  H    3.123751  10.366886  10.193518  11.606096  10.689193
    30  H    3.255978  10.323642  10.090683  11.555247  10.667720
    31  H   10.366687   3.122867   1.110059   2.611443   4.556484
    32  H   10.323689   3.256018   1.111543   2.762515   4.707723
    33  H    9.934739   4.139430   1.112267   3.926171   5.623465
    34  H   10.753456   2.164318   2.577403   1.109771   3.302365
    35  H   10.834932   2.157554   2.732190   1.111299   3.212630
    36  H   11.167602   2.150790   3.914398   1.111848   2.576152
    37  H    8.607083   2.170878   5.078127   3.249282   1.114140
    38  H   10.024380   2.166860   5.110972   2.586375   1.111861
    39  H    8.563155   2.173208   5.046980   3.286488   1.114047
    40  H    2.173227   8.563354   9.879768  10.026865   8.180053
    41  H    2.171021   8.606862   9.922204  10.078832   8.212612
    42  H    2.166897  10.024380  11.254328  11.497101   9.633341
    43  H    2.164283  10.753701  11.088322  12.114143  10.810290
    44  H    2.157535  10.834424  11.220401  12.197680  10.870330
    45  H    2.150818  11.167737  11.888037  12.593795  11.018313
                   21         22         23         24         25
    21  C    0.000000
    22  C    2.535891   0.000000
    23  H    2.308954   4.043488   0.000000
    24  H    5.770753   4.963511   4.798525   0.000000
    25  H    7.025818   6.921147   5.329905   2.379121   0.000000
    26  H    6.461625   8.140972   4.211784   6.560971   5.329879
    27  H    8.626172   8.999095   6.561108   4.753623   2.379166
    28  H    5.623737   3.926358   5.528959   2.143809   4.510736
    29  H    4.557520   2.612051   5.035720   3.338744   5.605931
    30  H    4.707650   2.762577   5.099846   3.209925   5.482350
    31  H   10.688846  11.605969   8.416176   7.907298   5.606329
    32  H   10.667818  11.555199   8.408131   7.790449   5.482093
    33  H   10.468940  11.056711   8.278720   6.888891   4.511086
    34  H   10.810095  12.113818   8.516776   9.016855   6.865488
    35  H   10.870728  12.198240   8.574659   9.165470   7.026193
    36  H   11.018163  12.593644   8.757142   9.994032   7.975458
    37  H    8.212862  10.079007   6.092309   8.543297   7.096894
    38  H    9.633343  11.497102   7.494045   9.722799   8.061502
    39  H    8.179853  10.026711   6.051086   8.495921   7.051016
    40  H    1.114039   3.286347   2.165161   6.008437   7.051184
    41  H    1.114142   3.249687   2.194236   6.047986   7.096943
    42  H    1.111855   2.586487   3.401145   6.648490   8.061582
    43  H    3.302264   1.109770   4.569185   4.801043   6.865939
    44  H    3.212953   1.111282   4.587818   4.972833   7.025412
    45  H    2.576254   1.111844   4.558842   6.065790   7.975573
                   26         27         28         29         30
    26  H    0.000000
    27  H    4.798614   0.000000
    28  H    8.278559   6.888619   0.000000
    29  H    8.416572   7.907129   1.732273   0.000000
    30  H    8.408008   7.790647   1.747084   1.846441   0.000000
    31  H    5.034996   3.339249  10.046947  10.952815  10.705439
    32  H    5.100021   3.209606   9.903894  10.705386  10.768257
    33  H    5.528935   2.144131   9.020355  10.047164   9.904132
    34  H    4.569188   4.800665  11.087783  11.663210  11.742120
    35  H    4.587993   4.973602  11.255163  11.929205  11.720649
    36  H    4.558770   6.065754  12.018550  12.482277  12.460002
    37  H    2.194554   6.047969  10.292934  10.363244  10.515427
    38  H    3.401159   6.648449  11.578747  11.795765  11.769524
    39  H    2.164854   6.008333  10.271167  10.475990  10.301375
    40  H    6.051292   8.496249   6.045101   4.940137   5.402377
    41  H    6.091995   8.543325   6.116135   5.281213   5.088169
    42  H    7.494008   9.722957   6.211598   4.954491   5.143603
    43  H    8.516915   9.017319   3.603749   2.641388   2.084093
    44  H    8.574261   9.164845   3.709166   2.086439   2.934360
    45  H    8.757241   9.994245   4.990354   3.615422   3.717920
                   31         32         33         34         35
    31  H    0.000000
    32  H    1.846473   0.000000
    33  H    1.732295   1.747240   0.000000
    34  H    2.640959   2.083954   3.603611   0.000000
    35  H    2.086221   2.934573   3.709225   1.866045   0.000000
    36  H    3.614987   3.717747   4.990181   1.734845   1.752285
    37  H    5.280237   5.088212   6.116058   3.746256   4.108510
    38  H    4.953351   5.143698   6.211244   3.394591   3.226383
    39  H    4.939030   5.402336   6.044581   4.189530   3.680181
    40  H   10.475838  10.301723  10.271677  10.345116  10.561091
    41  H   10.362621  10.515283  10.292809  10.555885  10.443427
    42  H   11.795393  11.769640  11.578952  11.879110  11.941152
    43  H   11.663442  11.742374  11.088270  12.404034  12.363545
    44  H   11.928529  11.720008  11.254848  12.362635  12.596938
    45  H   12.482292  12.460044  12.018885  12.900206  12.955444
                   36         37         38         39         40
    36  H    0.000000
    37  H    3.255571   0.000000
    38  H    2.147787   1.763518   0.000000
    39  H    3.382551   1.852770   1.753402   0.000000
    40  H   10.556938   7.625310   9.144187   7.815529   0.000000
    41  H   10.629061   7.877957   9.167304   7.624883   1.852685
    42  H   12.045735   9.167570  10.588571   9.143974   1.753349
    43  H   12.900423  10.556259  11.879292  10.345136   4.189357
    44  H   12.954707  10.443238  11.940788  10.560564   3.680253
    45  H   13.277626  10.629326  12.045898  10.557020   3.382161
                   41         42         43         44         45
    41  H    0.000000
    42  H    1.763536   0.000000
    43  H    3.746496   3.394336   0.000000
    44  H    4.108978   3.227057   1.865949   0.000000
    45  H    3.256323   2.147842   1.734981   1.752248   0.000000
 Stoichiometry    C19H23N3
 Framework group  C1[X(C19H23N3)]
 Deg. of freedom   129
 Full point group                 C1      NOp   1
 Largest Abelian subgroup         C1      NOp   1
 Largest concise Abelian subgroup C1      NOp   1
                         Standard orientation:                         
 ---------------------------------------------------------------------
 Center     Atomic      Atomic             Coordinates (Angstroms)
 Number     Number       Type             X           Y           Z
 ---------------------------------------------------------------------
      1          6           0       -3.519844   -1.033918    0.007186
      2          6           0       -3.508715    0.329900    0.001759
      3          6           0       -2.266395    0.876804    0.002222
      4          6           0       -1.105827    0.198046    0.002029
      5          6           0       -1.152697   -1.139432    0.001803
      6          6           0       -2.357986   -1.721941    0.005054
      7          7           0       -0.000018    0.819500   -0.000161
      8          6           0        1.105820    0.198039   -0.002186
      9          6           0        1.152722   -1.139444   -0.001642
     10          6           0        0.000014   -1.827958    0.000171
     11          6           0        2.266348    0.876788   -0.002409
     12          6           0        3.508661    0.329865   -0.001775
     13          6           0        3.519814   -1.033957   -0.007190
     14          6           0        2.358014   -1.722018   -0.004841
     15          6           0       -4.747303   -1.932906    0.031676
     16          7           0       -4.523782    1.124620   -0.003964
     17          7           0        4.523758    1.124557    0.003998
     18          6           0        4.747369   -1.932743   -0.032142
     19          6           0        5.926842    0.643409    0.045060
     20          6           0        4.323812    2.607117   -0.021872
     21          6           0       -4.323813    2.607218    0.021731
     22          6           0       -5.926853    0.643390   -0.044514
     23          1           0       -2.105911    1.965725   -0.004084
     24          1           0       -2.376776   -2.825134    0.007817
     25          1           0       -0.000001   -2.930498    0.000354
     26          1           0        2.105865    1.965717    0.003749
     27          1           0        2.376823   -2.825227   -0.007493
     28          1           0       -4.507346   -3.011941    0.155092
     29          1           0       -5.400889   -1.731989    0.906140
     30          1           0       -5.303209   -1.897948   -0.930231
     31          1           0        5.400902   -1.730964   -0.906449
     32          1           0        5.303181   -1.898185    0.929838
     33          1           0        4.507629   -3.011732   -0.156421
     34          1           0        6.130797    0.014372    0.936299
     35          1           0        6.231252    0.182845   -0.919409
     36          1           0        6.636415    1.489361    0.175744
     37          1           0        3.832794    2.972896    0.908942
     38          1           0        5.293922    3.148829   -0.062731
     39          1           0        3.792181    2.938585   -0.943065
     40          1           0       -3.792364    2.938797    0.942980
     41          1           0       -3.832548    2.973003   -0.908954
     42          1           0       -5.293909    3.148957    0.062398
     43          1           0       -6.131138    0.014627   -0.935869
     44          1           0       -6.230686    0.182293    0.919863
     45          1           0       -6.636596    1.489327   -0.174337
 ---------------------------------------------------------------------
 Rotational constants (GHZ):      0.7996573      0.1308691      0.1129934
 Standard basis: 6-311++G(d,p) (5D, 7F)
 There are   667 symmetry adapted cartesian basis functions of A   symmetry.
 There are   645 symmetry adapted basis functions of A   symmetry.
   645 basis functions,   999 primitive gaussians,   667 cartesian basis functions
    79 alpha electrons       79 beta electrons
       nuclear repulsion energy      1755.9445894004 Hartrees.
 NAtoms=   45 NActive=   45 NUniq=   45 SFac= 1.00D+00 NAtFMM=   60 NAOKFM=F Big=F
 Integral buffers will be    131072 words long.
 Raffenetti 2 integral format.
 Two-electron integral symmetry is turned on.
 One-electron integrals computed using PRISM.
 NBasis=   645 RedAO= T EigKep=  1.55D-06  NBF=   645
 NBsUse=   633 1.00D-06 EigRej=  9.52D-07 NBFU=   633
 ExpMin= 3.60D-02 ExpMax= 6.29D+03 ExpMxC= 9.49D+02 IAcc=3 IRadAn=         5 AccDes= 0.00D+00
 Harris functional with IExCor=  402 and IRadAn=       5 diagonalized for initial guess.
 HarFok:  IExCor=  402 AccDes= 0.00D+00 IRadAn=         5 IDoV= 1 UseB2=F ITyADJ=14
 ICtDFT=  3500011 ScaDFX=  1.000000  1.000000  1.000000  1.000000
 FoFCou: FMM=F IPFlag=           0 FMFlag=      100000 FMFlg1=           0
         NFxFlg=           0 DoJE=T BraDBF=F KetDBF=T FulRan=T
         wScrn=  0.000000 ICntrl=     500 IOpCl=  0 I1Cent=   200000004 NGrid=           0
         NMat0=    1 NMatS0=      1 NMatT0=    0 NMatD0=    1 NMtDS0=    0 NMtDT0=    0
 Petite list used in FoFCou.
 Requested convergence on RMS density matrix=1.00D-08 within 128 cycles.
 Requested convergence on MAX density matrix=1.00D-06.
 Requested convergence on             energy=1.00D-06.
 No special actions if energy rises.
 EnCoef did     1 forward-backward iterations
 SCF Done:  E(RB3LYP) =  -902.219771431     A.U. after   18 cycles
            NFock= 18  Conv=0.63D-08     -V/T= 2.0015

 **********************************************************************

            Population analysis using the SCF density.

 **********************************************************************

 Orbital symmetries:
       Occupied  (A) (A) (A) (A) (A) (A) (A) (A) (A) (A) (A) (A)
                 (A) (A) (A) (A) (A) (A) (A) (A) (A) (A) (A) (A)
                 (A) (A) (A) (A) (A) (A) (A) (A) (A) (A) (A) (A)
                 (A) (A) (A) (A) (A) (A) (A) (A) (A) (A) (A) (A)
                 (A) (A) (A) (A) (A) (A) (A) (A) (A) (A) (A) (A)
                 (A) (A) (A) (A) (A) (A) (A) (A) (A) (A) (A) (A)
                 (A) (A) (A) (A) (A) (A) (A)
       Virtual   (A) (A) (A) (A) (A) (A) (A) (A) (A) (A) (A) (A)
                 (A) (A) (A) (A) (A) (A) (A) (A) (A) (A) (A) (A)
                 (A) (A) (A) (A) (A) (A) (A) (A) (A) (A) (A) (A)
                 (A) (A) (A) (A) (A) (A) (A) (A) (A) (A) (A) (A)
                 (A) (A) (A) (A) (A) (A) (A) (A) (A) (A) (A) (A)
                 (A) (A) (A) (A) (A) (A) (A) (A) (A) (A) (A) (A)
                 (A) (A) (A) (A) (A) (A) (A) (A) (A) (A) (A) (A)
                 (A) (A) (A) (A) (A) (A) (A) (A) (A) (A) (A) (A)
                 (A) (A) (A) (A) (A) (A) (A) (A) (A) (A) (A) (A)
                 (A) (A) (A) (A) (A) (A) (A) (A) (A) (A) (A) (A)
                 (A) (A) (A) (A) (A) (A) (A) (A) (A) (A) (A) (A)
                 (A) (A) (A) (A) (A) (A) (A) (A) (A) (A) (A) (A)
                 (A) (A) (A) (A) (A) (A) (A) (A) (A) (A) (A) (A)
                 (A) (A) (A) (A) (A) (A) (A) (A) (A) (A) (A) (A)
                 (A) (A) (A) (A) (A) (A) (A) (A) (A) (A) (A) (A)
                 (A) (A) (A) (A) (A) (A) (A) (A) (A) (A) (A) (A)
                 (A) (A) (A) (A) (A) (A) (A) (A) (A) (A) (A) (A)
                 (A) (A) (A) (A) (A) (A) (A) (A) (A) (A) (A) (A)
                 (A) (A) (A) (A) (A) (A) (A) (A) (A) (A) (A) (A)
                 (A) (A) (A) (A) (A) (A) (A) (A) (A) (A) (A) (A)
                 (A) (A) (A) (A) (A) (A) (A) (A) (A) (A) (A) (A)
                 (A) (A) (A) (A) (A) (A) (A) (A) (A) (A) (A) (A)
                 (A) (A) (A) (A) (A) (A) (A) (A) (A) (A) (A) (A)
                 (A) (A) (A) (A) (A) (A) (A) (A) (A) (A) (A) (A)
                 (A) (A) (A) (A) (A) (A) (A) (A) (A) (A) (A) (A)
                 (A) (A) (A) (A) (A) (A) (A) (A) (A) (A) (A) (A)
                 (A) (A) (A) (A) (A) (A) (A) (A) (A) (A) (A) (A)
                 (A) (A) (A) (A) (A) (A) (A) (A) (A) (A) (A) (A)
                 (A) (A) (A) (A) (A) (A) (A) (A) (A) (A) (A) (A)
                 (A) (A) (A) (A) (A) (A) (A) (A) (A) (A) (A) (A)
                 (A) (A) (A) (A) (A) (A) (A) (A) (A) (A) (A) (A)
                 (A) (A) (A) (A) (A) (A) (A) (A) (A) (A) (A) (A)
                 (A) (A) (A) (A) (A) (A) (A) (A) (A) (A) (A) (A)
                 (A) (A) (A) (A) (A) (A) (A) (A) (A) (A) (A) (A)
                 (A) (A) (A) (A) (A) (A) (A) (A) (A) (A) (A) (A)
                 (A) (A) (A) (A) (A) (A) (A) (A) (A) (A) (A) (A)
                 (A) (A) (A) (A) (A) (A) (A) (A) (A) (A) (A) (A)
                 (A) (A) (A) (A) (A) (A) (A) (A) (A) (A) (A) (A)
                 (A) (A) (A) (A) (A) (A) (A) (A) (A) (A) (A) (A)
                 (A) (A) (A) (A) (A) (A) (A) (A) (A) (A) (A) (A)
                 (A) (A) (A) (A) (A) (A) (A) (A) (A) (A) (A) (A)
                 (A) (A) (A) (A) (A) (A) (A) (A) (A) (A) (A) (A)
                 (A) (A) (A) (A) (A) (A) (A) (A) (A) (A) (A) (A)
                 (A) (A) (A) (A) (A) (A) (A) (A) (A) (A) (A) (A)
                 (A) (A) (A) (A) (A) (A) (A) (A) (A) (A) (A) (A)
                 (A) (A) (A) (A) (A) (A) (A) (A) (A) (A) (A) (A)
                 (A) (A)
 The electronic state is 1-A.
 Alpha  occ. eigenvalues --  -14.33521 -14.33520 -14.24534 -10.20929 -10.20928
 Alpha  occ. eigenvalues --  -10.20863 -10.20863 -10.19093 -10.19093 -10.16540
 Alpha  occ. eigenvalues --  -10.16540 -10.16087 -10.16087 -10.15585 -10.15493
 Alpha  occ. eigenvalues --  -10.15492 -10.14666 -10.14665 -10.13076 -10.13074
 Alpha  occ. eigenvalues --  -10.11848 -10.11847  -0.97077  -0.96722  -0.95783
 Alpha  occ. eigenvalues --   -0.86453  -0.84874  -0.80221  -0.77764  -0.75522
 Alpha  occ. eigenvalues --   -0.75350  -0.72045  -0.71647  -0.70347  -0.70222
 Alpha  occ. eigenvalues --   -0.66244  -0.65765  -0.61620  -0.60429  -0.59559
 Alpha  occ. eigenvalues --   -0.58611  -0.53610  -0.53559  -0.51972  -0.49332
 Alpha  occ. eigenvalues --   -0.48893  -0.47653  -0.47588  -0.47077  -0.44071
 Alpha  occ. eigenvalues --   -0.43898  -0.43022  -0.42911  -0.42709  -0.42552
 Alpha  occ. eigenvalues --   -0.42463  -0.41363  -0.40925  -0.40392  -0.40326
 Alpha  occ. eigenvalues --   -0.39683  -0.39363  -0.38097  -0.37947  -0.37682
 Alpha  occ. eigenvalues --   -0.37020  -0.35754  -0.34204  -0.33928  -0.33073
 Alpha  occ. eigenvalues --   -0.32918  -0.32385  -0.31205  -0.30175  -0.23895
 Alpha  occ. eigenvalues --   -0.23071  -0.21773  -0.18225  -0.16814
 Alpha virt. eigenvalues --   -0.04802  -0.01367  -0.01270   0.00212   0.00582
 Alpha virt. eigenvalues --    0.01025   0.01258   0.01931   0.01933   0.02110
 Alpha virt. eigenvalues --    0.02783   0.02783   0.03221   0.03375   0.03600
 Alpha virt. eigenvalues --    0.03959   0.04062   0.04117   0.04593   0.05448
 Alpha virt. eigenvalues --    0.05601   0.06066   0.06386   0.06564   0.06768
 Alpha virt. eigenvalues --    0.07569   0.07586   0.08138   0.08837   0.09135
 Alpha virt. eigenvalues --    0.09193   0.09801   0.10157   0.10296   0.10356
 Alpha virt. eigenvalues --    0.10464   0.11034   0.11327   0.11570   0.11584
 Alpha virt. eigenvalues --    0.11677   0.11868   0.12023   0.12095   0.12350
 Alpha virt. eigenvalues --    0.12732   0.12772   0.13064   0.13294   0.13947
 Alpha virt. eigenvalues --    0.14081   0.14272   0.14428   0.14637   0.14841
 Alpha virt. eigenvalues --    0.15072   0.15699   0.15835   0.15898   0.16101
 Alpha virt. eigenvalues --    0.16783   0.16885   0.17008   0.17113   0.17773
 Alpha virt. eigenvalues --    0.18162   0.18195   0.18321   0.18491   0.18735
 Alpha virt. eigenvalues --    0.18948   0.19188   0.19707   0.19830   0.19958
 Alpha virt. eigenvalues --    0.20071   0.20465   0.20747   0.21147   0.21755
 Alpha virt. eigenvalues --    0.22084   0.22340   0.22603   0.22892   0.22913
 Alpha virt. eigenvalues --    0.23175   0.23180   0.23460   0.23523   0.24293
 Alpha virt. eigenvalues --    0.25273   0.25829   0.25848   0.26254   0.26365
 Alpha virt. eigenvalues --    0.26748   0.26997   0.27499   0.27716   0.27720
 Alpha virt. eigenvalues --    0.28083   0.28495   0.28950   0.29163   0.29678
 Alpha virt. eigenvalues --    0.29806   0.29894   0.30234   0.30369   0.30657
 Alpha virt. eigenvalues --    0.30844   0.30928   0.31213   0.31503   0.31577
 Alpha virt. eigenvalues --    0.32956   0.33082   0.33308   0.33963   0.34148
 Alpha virt. eigenvalues --    0.34311   0.34475   0.34805   0.35344   0.36125
 Alpha virt. eigenvalues --    0.36589   0.36970   0.37263   0.37844   0.37945
 Alpha virt. eigenvalues --    0.38427   0.38841   0.39357   0.39919   0.40684
 Alpha virt. eigenvalues --    0.40977   0.42221   0.42804   0.43980   0.44016
 Alpha virt. eigenvalues --    0.44550   0.44776   0.46133   0.46757   0.46863
 Alpha virt. eigenvalues --    0.48450   0.49124   0.49292   0.49484   0.50831
 Alpha virt. eigenvalues --    0.51117   0.51413   0.51701   0.52181   0.53077
 Alpha virt. eigenvalues --    0.55169   0.56908   0.57189   0.57709   0.57996
 Alpha virt. eigenvalues --    0.58384   0.58537   0.58936   0.59293   0.59954
 Alpha virt. eigenvalues --    0.60299   0.61026   0.61350   0.61653   0.61819
 Alpha virt. eigenvalues --    0.62339   0.63234   0.63413   0.63471   0.63963
 Alpha virt. eigenvalues --    0.64361   0.64962   0.65242   0.65271   0.65916
 Alpha virt. eigenvalues --    0.66179   0.66512   0.67031   0.67376   0.67731
 Alpha virt. eigenvalues --    0.68208   0.68857   0.69793   0.70076   0.70136
 Alpha virt. eigenvalues --    0.70728   0.71524   0.71922   0.72206   0.72881
 Alpha virt. eigenvalues --    0.73114   0.73383   0.73737   0.73887   0.74279
 Alpha virt. eigenvalues --    0.74605   0.74655   0.75568   0.75600   0.76544
 Alpha virt. eigenvalues --    0.77561   0.78160   0.79041   0.80010   0.80258
 Alpha virt. eigenvalues --    0.80284   0.81181   0.82644   0.83104   0.83565
 Alpha virt. eigenvalues --    0.84165   0.84216   0.84796   0.86870   0.87596
 Alpha virt. eigenvalues --    0.88024   0.90802   0.91162   0.91543   0.91950
 Alpha virt. eigenvalues --    0.92357   0.92696   0.93243   0.93950   0.94055
 Alpha virt. eigenvalues --    0.95384   0.95410   0.95952   0.97553   0.97570
 Alpha virt. eigenvalues --    0.98742   0.99424   0.99557   1.00239   1.00330
 Alpha virt. eigenvalues --    1.01548   1.02075   1.02286   1.02749   1.03273
 Alpha virt. eigenvalues --    1.04419   1.04641   1.05890   1.07440   1.07631
 Alpha virt. eigenvalues --    1.08217   1.08405   1.09080   1.09490   1.10563
 Alpha virt. eigenvalues --    1.10691   1.11395   1.11976   1.15597   1.17651
 Alpha virt. eigenvalues --    1.17851   1.18954   1.19706   1.19782   1.23192
 Alpha virt. eigenvalues --    1.24270   1.25262   1.29087   1.31351   1.32181
 Alpha virt. eigenvalues --    1.33393   1.33480   1.34354   1.35499   1.35856
 Alpha virt. eigenvalues --    1.36150   1.37142   1.38095   1.40278   1.40396
 Alpha virt. eigenvalues --    1.41678   1.42403   1.44300   1.44565   1.44999
 Alpha virt. eigenvalues --    1.46537   1.46853   1.49000   1.50784   1.50825
 Alpha virt. eigenvalues --    1.52654   1.53512   1.53719   1.54029   1.55625
 Alpha virt. eigenvalues --    1.55861   1.55932   1.56697   1.57811   1.58175
 Alpha virt. eigenvalues --    1.58883   1.59300   1.59613   1.59851   1.60092
 Alpha virt. eigenvalues --    1.61544   1.62216   1.62254   1.63469   1.63554
 Alpha virt. eigenvalues --    1.63851   1.64229   1.64508   1.64672   1.65592
 Alpha virt. eigenvalues --    1.66353   1.66723   1.67121   1.67967   1.68498
 Alpha virt. eigenvalues --    1.71206   1.72005   1.72643   1.72712   1.73610
 Alpha virt. eigenvalues --    1.74642   1.75764   1.75873   1.76242   1.76340
 Alpha virt. eigenvalues --    1.77671   1.77704   1.79758   1.80083   1.81117
 Alpha virt. eigenvalues --    1.83621   1.83740   1.83936   1.85422   1.85859
 Alpha virt. eigenvalues --    1.88376   1.88778   1.88999   1.90051   1.90825
 Alpha virt. eigenvalues --    1.90935   1.91661   1.91747   1.93336   1.93917
 Alpha virt. eigenvalues --    1.95091   1.96019   1.96966   1.98176   1.99089
 Alpha virt. eigenvalues --    1.99400   2.01949   2.02616   2.02975   2.03296
 Alpha virt. eigenvalues --    2.04119   2.04246   2.05231   2.06935   2.07967
 Alpha virt. eigenvalues --    2.09430   2.10373   2.12988   2.13850   2.14233
 Alpha virt. eigenvalues --    2.16041   2.16068   2.17174   2.18211   2.18250
 Alpha virt. eigenvalues --    2.19973   2.20429   2.21313   2.22260   2.22792
 Alpha virt. eigenvalues --    2.23306   2.23652   2.25110   2.26319   2.28333
 Alpha virt. eigenvalues --    2.30367   2.30876   2.32268   2.33561   2.33913
 Alpha virt. eigenvalues --    2.35007   2.36958   2.37961   2.39817   2.40692
 Alpha virt. eigenvalues --    2.41643   2.42558   2.43111   2.43376   2.43612
 Alpha virt. eigenvalues --    2.44138   2.44364   2.44476   2.45522   2.45742
 Alpha virt. eigenvalues --    2.46695   2.47590   2.47757   2.50836   2.50855
 Alpha virt. eigenvalues --    2.54147   2.55011   2.56399   2.56755   2.57564
 Alpha virt. eigenvalues --    2.58201   2.58637   2.59086   2.59356   2.59968
 Alpha virt. eigenvalues --    2.61039   2.61626   2.64753   2.65491   2.67247
 Alpha virt. eigenvalues --    2.67879   2.68869   2.69222   2.69936   2.72726
 Alpha virt. eigenvalues --    2.72982   2.74011   2.75477   2.75583   2.76134
 Alpha virt. eigenvalues --    2.77009   2.78508   2.78565   2.81400   2.81644
 Alpha virt. eigenvalues --    2.82690   2.83047   2.83327   2.83960   2.84513
 Alpha virt. eigenvalues --    2.84703   2.88312   2.88903   2.89327   2.90915
 Alpha virt. eigenvalues --    2.91486   2.92644   2.92959   2.95024   2.97279
 Alpha virt. eigenvalues --    2.97337   2.97443   2.98986   3.00290   3.00839
 Alpha virt. eigenvalues --    3.01557   3.02163   3.05842   3.08889   3.10098
 Alpha virt. eigenvalues --    3.10481   3.12319   3.13520   3.17205   3.17638
 Alpha virt. eigenvalues --    3.18543   3.19545   3.20642   3.21590   3.24679
 Alpha virt. eigenvalues --    3.29447   3.29895   3.36477   3.38584   3.42164
 Alpha virt. eigenvalues --    3.46383   3.48618   3.52672   3.53173   3.57143
 Alpha virt. eigenvalues --    3.58100   3.58752   3.62123   3.62606   3.66056
 Alpha virt. eigenvalues --    3.66417   3.66875   3.70471   3.71610   3.72525
 Alpha virt. eigenvalues --    3.73669   3.74750   3.75341   3.75757   3.77604
 Alpha virt. eigenvalues --    3.78566   3.79099   3.79940   3.80599   3.80789
 Alpha virt. eigenvalues --    3.82567   3.83056   3.83395   3.83783   3.86513
 Alpha virt. eigenvalues --    3.88926   4.01503   4.02018   4.05564   4.07061
 Alpha virt. eigenvalues --    4.07219   4.19371   4.21709   4.23211   4.27007
 Alpha virt. eigenvalues --    4.32182   4.37735   4.39729   4.62040   4.70236
 Alpha virt. eigenvalues --    4.85783   4.85924   4.97775   5.00189   5.12559
 Alpha virt. eigenvalues --    5.16038   5.54996  23.62628  23.81864  23.88215
 Alpha virt. eigenvalues --   23.88437  23.93186  23.93699  23.95071  23.96564
 Alpha virt. eigenvalues --   24.07467  24.12466  24.13582  24.21518  24.24476
 Alpha virt. eigenvalues --   24.31364  24.31641  24.33483  24.36728  24.44601
 Alpha virt. eigenvalues --   24.48387  35.72881  35.73244  35.97035
          Condensed to atoms (all electrons):
               1          2          3          4          5          6
     1  C    9.870778   0.696785  -0.760390  -2.990262  -1.126941  -0.015898
     2  C    0.696785   6.912413  -0.413538   0.284541   0.677944  -0.112251
     3  C   -0.760390  -0.413538   7.044956   0.751630   0.211774   0.332579
     4  C   -2.990262   0.284541   0.751630  15.705154   1.006214  -1.481192
     5  C   -1.126941   0.677944   0.211774   1.006214  11.356903   1.779045
     6  C   -0.015898  -0.112251   0.332579  -1.481192   1.779045   7.895203
     7  N    0.177810   0.029790  -0.368779  -0.032740   0.210849   0.031948
     8  C   -1.109960  -1.461896   0.752386   0.183675  -4.583111  -2.023487
     9  C    1.240833  -0.280763  -0.671217  -4.584302  -3.113827  -0.130416
    10  C   -0.241378  -0.300887   0.109447   1.437007  -0.382828  -0.840455
    11  C   -0.017193  -0.044182  -0.123322   0.751658  -0.670514  -0.095396
    12  C    0.076508  -0.078881  -0.044308  -1.462473  -0.280560   0.078573
    13  C    0.148239   0.076417  -0.017257  -1.110060   1.240037   0.394529
    14  C    0.394616   0.078476  -0.095461  -2.023391  -0.130767   0.217888
    15  C   -0.696396   0.346665  -0.518903   0.029494   0.078621  -0.445689
    16  N   -0.149649  -0.008158  -0.194864  -0.033633  -0.025143   0.051024
    17  N    0.000004  -0.000312   0.000533  -0.006548  -0.007770  -0.001035
    18  C    0.009443   0.001196  -0.008153   0.008063   0.062552   0.013255
    19  C    0.000447  -0.001034   0.001765  -0.068739  -0.011255   0.000955
    20  C   -0.000225  -0.004405   0.001665  -0.056985  -0.023311  -0.003070
    21  C   -0.046144  -0.193751  -0.009174   0.007161   0.004102   0.052482
    22  C    0.246707  -0.351721   0.086464  -0.224089   0.041256   0.101344
    23  H    0.000482  -0.055964   0.386192   0.062244   0.028249   0.040929
    24  H   -0.164882   0.009621   0.022410   0.142866   0.001883   0.342577
    25  H    0.011210   0.005210  -0.009997  -0.027932  -0.085679   0.037807
    26  H   -0.007078  -0.013287   0.016532  -0.026185  -0.050554  -0.021216
    27  H   -0.000564  -0.003470  -0.003174   0.028796  -0.066718  -0.004749
    28  H   -0.101711   0.018546  -0.019644  -0.009907  -0.007297  -0.004013
    29  H    0.015408   0.012579   0.002156  -0.009137  -0.023518  -0.013088
    30  H    0.007095  -0.019696   0.009699  -0.019943  -0.001044   0.003662
    31  H    0.000163   0.000020  -0.000166  -0.001929   0.000233   0.000657
    32  H   -0.000082  -0.000125   0.000160  -0.003293  -0.001718  -0.000375
    33  H    0.000372   0.000542   0.000320   0.000836   0.012291   0.002978
    34  H    0.000036   0.000016  -0.000048  -0.000061   0.000525   0.000088
    35  H   -0.000025  -0.000033   0.000054  -0.000586  -0.000498  -0.000142
    36  H    0.000029   0.000031   0.000019  -0.000569   0.000698   0.000186
    37  H    0.000116   0.000648  -0.001252   0.009968   0.003429   0.000774
    38  H   -0.000044  -0.000223   0.000345  -0.002759  -0.001577  -0.000271
    39  H    0.000197   0.000542  -0.001243   0.009831   0.002649   0.000411
    40  H   -0.000065   0.002964  -0.007945   0.000547  -0.007007  -0.006629
    41  H   -0.003635   0.003637   0.002351   0.000573  -0.006418  -0.006256
    42  H   -0.003661  -0.003042   0.025725  -0.001000   0.001877   0.005354
    43  H    0.004849  -0.006302  -0.002934  -0.003560  -0.001859  -0.006471
    44  H   -0.009039  -0.008027   0.001792  -0.003720   0.004847   0.002984
    45  H    0.006615   0.033924  -0.002616   0.001426  -0.003009  -0.008513
               7          8          9         10         11         12
     1  C    0.177810  -1.109960   1.240833  -0.241378  -0.017193   0.076508
     2  C    0.029790  -1.461896  -0.280763  -0.300887  -0.044182  -0.078881
     3  C   -0.368779   0.752386  -0.671217   0.109447  -0.123322  -0.044308
     4  C   -0.032740   0.183675  -4.584302   1.437007   0.751658  -1.462473
     5  C    0.210849  -4.583111  -3.113827  -0.382828  -0.670514  -0.280560
     6  C    0.031948  -2.023487  -0.130416  -0.840455  -0.095396   0.078573
     7  N    6.946327  -0.032770   0.210858  -0.150461  -0.368662   0.029900
     8  C   -0.032770  15.704774   1.005032   1.437175   0.751269   0.283383
     9  C    0.210858   1.005032  11.358258  -0.383131   0.212467   0.677980
    10  C   -0.150461   1.437175  -0.383131   6.603826   0.109555  -0.301302
    11  C   -0.368662   0.751269   0.212467   0.109555   7.044672  -0.414496
    12  C    0.029900   0.283383   0.677980  -0.301302  -0.414496   6.914230
    13  C    0.177810  -2.989848  -1.127598  -0.242102  -0.759851   0.698032
    14  C    0.031955  -1.481473   1.779678  -0.840773   0.332660  -0.112817
    15  C    0.025200   0.008043   0.062525  -0.101405  -0.008153   0.001197
    16  N   -0.016248  -0.006545  -0.007770  -0.008918   0.000533  -0.000312
    17  N   -0.016247  -0.033587  -0.025140  -0.008920  -0.194957  -0.008097
    18  C    0.025206   0.029587   0.078481  -0.101264  -0.518941   0.346836
    19  C   -0.006648  -0.224199   0.041278  -0.007771   0.086445  -0.351795
    20  C   -0.004730   0.007155   0.004136  -0.005731  -0.009208  -0.193785
    21  C   -0.004732  -0.056983  -0.023341  -0.005715   0.001668  -0.004409
    22  C   -0.006647  -0.068726  -0.011224  -0.007786   0.001765  -0.001033
    23  H   -0.007305  -0.026189  -0.050556   0.001466   0.016518  -0.013293
    24  H   -0.004352   0.028806  -0.066818   0.057160  -0.003177  -0.003477
    25  H    0.006879  -0.027886  -0.085600   0.345632  -0.009985   0.005225
    26  H   -0.007322   0.062285   0.028242   0.001461   0.386221  -0.056013
    27  H   -0.004345   0.142727   0.001810   0.057212   0.022359   0.009573
    28  H    0.001355   0.000835   0.012304  -0.004937   0.000320   0.000543
    29  H   -0.000291  -0.001928   0.000218   0.005096  -0.000165   0.000019
    30  H   -0.000668  -0.003288  -0.001694   0.005794   0.000160  -0.000124
    31  H   -0.000290  -0.009091  -0.023699   0.005122   0.002099   0.012802
    32  H   -0.000668  -0.020036  -0.000861   0.005779   0.009736  -0.019918
    33  H    0.001353  -0.009863  -0.007262  -0.004960  -0.019620   0.018580
    34  H    0.000075  -0.003533  -0.001896  -0.000812  -0.002943  -0.006297
    35  H   -0.000067  -0.003708   0.004868   0.000075   0.001786  -0.007954
    36  H   -0.000102   0.001395  -0.003004   0.000617  -0.002591   0.033863
    37  H    0.000125   0.000580  -0.006432   0.000404   0.002347   0.003662
    38  H   -0.000025  -0.000985   0.001872   0.000203   0.025714  -0.003027
    39  H    0.000245   0.000532  -0.006981   0.000212  -0.007943   0.002933
    40  H    0.000243   0.009854   0.002648   0.000217  -0.001244   0.000542
    41  H    0.000126   0.009952   0.003436   0.000394  -0.001251   0.000648
    42  H   -0.000025  -0.002765  -0.001581   0.000205   0.000346  -0.000224
    43  H    0.000075  -0.000067   0.000517  -0.000813  -0.000048   0.000016
    44  H   -0.000067  -0.000586  -0.000496   0.000084   0.000054  -0.000033
    45  H   -0.000101  -0.000565   0.000702   0.000615   0.000019   0.000031
              13         14         15         16         17         18
     1  C    0.148239   0.394616  -0.696396  -0.149649   0.000004   0.009443
     2  C    0.076417   0.078476   0.346665  -0.008158  -0.000312   0.001196
     3  C   -0.017257  -0.095461  -0.518903  -0.194864   0.000533  -0.008153
     4  C   -1.110060  -2.023391   0.029494  -0.033633  -0.006548   0.008063
     5  C    1.240037  -0.130767   0.078621  -0.025143  -0.007770   0.062552
     6  C    0.394529   0.217888  -0.445689   0.051024  -0.001035   0.013255
     7  N    0.177810   0.031955   0.025200  -0.016248  -0.016247   0.025206
     8  C   -2.989848  -1.481473   0.008043  -0.006545  -0.033587   0.029587
     9  C   -1.127598   1.779678   0.062525  -0.007770  -0.025140   0.078481
    10  C   -0.242102  -0.840773  -0.101405  -0.008918  -0.008920  -0.101264
    11  C   -0.759851   0.332660  -0.008153   0.000533  -0.194957  -0.518941
    12  C    0.698032  -0.112817   0.001197  -0.000312  -0.008097   0.346836
    13  C    9.871180  -0.015679   0.009450   0.000004  -0.149684  -0.696150
    14  C   -0.015679   7.895656   0.013258  -0.001034   0.051028  -0.445692
    15  C    0.009450   0.013258   7.157813  -0.112002   0.000003   0.000652
    16  N    0.000004  -0.001034  -0.112002   7.211143   0.000007   0.000003
    17  N   -0.149684   0.051028   0.000003   0.000007   7.211170  -0.112000
    18  C   -0.696150  -0.445692   0.000652   0.000003  -0.112000   7.157040
    19  C    0.246349   0.101496   0.000015   0.000001   0.386921  -0.291996
    20  C   -0.046080   0.052482   0.000004   0.000034   0.354363   0.007594
    21  C   -0.000227  -0.003075   0.007646   0.354370   0.000034   0.000004
    22  C    0.000448   0.000961  -0.292331   0.386912   0.000001   0.000015
    23  H   -0.007077  -0.021217  -0.024855  -0.065995  -0.000651  -0.000371
    24  H   -0.000562  -0.004762  -0.053517  -0.002909   0.000000  -0.001427
    25  H    0.011199   0.037848   0.010933  -0.000529  -0.000528   0.010914
    26  H    0.000457   0.040935  -0.000371  -0.000651  -0.065992  -0.024867
    27  H   -0.164851   0.342533  -0.001429   0.000000  -0.002911  -0.053428
    28  H    0.000371   0.002979   0.455207  -0.005237   0.000000   0.000054
    29  H    0.000162   0.000650   0.322277   0.005463   0.000000  -0.000002
    30  H   -0.000080  -0.000365   0.331894   0.004597   0.000000   0.000006
    31  H    0.015568  -0.013286  -0.000002   0.000000   0.005498   0.322117
    32  H    0.006714   0.003914   0.000006   0.000000   0.004574   0.332094
    33  H   -0.101687  -0.003945   0.000054   0.000000  -0.005245   0.455126
    34  H    0.004937  -0.006518  -0.000001   0.000000  -0.059541   0.007584
    35  H   -0.008978   0.002986  -0.000001   0.000000  -0.080065   0.021702
    36  H    0.006559  -0.008489   0.000001   0.000000  -0.037071  -0.011037
    37  H   -0.003650  -0.006259   0.000000   0.000003  -0.063133  -0.001597
    38  H   -0.003660   0.005351   0.000000   0.000002  -0.049099   0.007443
    39  H   -0.000045  -0.006629   0.000005   0.000004  -0.054102   0.008775
    40  H    0.000197   0.000410   0.008781  -0.054151   0.000004   0.000005
    41  H    0.000116   0.000776  -0.001620  -0.063066   0.000003   0.000000
    42  H   -0.000044  -0.000272   0.007462  -0.049096   0.000002   0.000000
    43  H    0.000036   0.000086   0.007675  -0.059595   0.000000  -0.000001
    44  H   -0.000025  -0.000142   0.021679  -0.079990   0.000000  -0.000001
    45  H    0.000029   0.000186  -0.011053  -0.037039   0.000000   0.000001
              19         20         21         22         23         24
     1  C    0.000447  -0.000225  -0.046144   0.246707   0.000482  -0.164882
     2  C   -0.001034  -0.004405  -0.193751  -0.351721  -0.055964   0.009621
     3  C    0.001765   0.001665  -0.009174   0.086464   0.386192   0.022410
     4  C   -0.068739  -0.056985   0.007161  -0.224089   0.062244   0.142866
     5  C   -0.011255  -0.023311   0.004102   0.041256   0.028249   0.001883
     6  C    0.000955  -0.003070   0.052482   0.101344   0.040929   0.342577
     7  N   -0.006648  -0.004730  -0.004732  -0.006647  -0.007305  -0.004352
     8  C   -0.224199   0.007155  -0.056983  -0.068726  -0.026189   0.028806
     9  C    0.041278   0.004136  -0.023341  -0.011224  -0.050556  -0.066818
    10  C   -0.007771  -0.005731  -0.005715  -0.007786   0.001466   0.057160
    11  C    0.086445  -0.009208   0.001668   0.001765   0.016518  -0.003177
    12  C   -0.351795  -0.193785  -0.004409  -0.001033  -0.013293  -0.003477
    13  C    0.246349  -0.046080  -0.000227   0.000448  -0.007077  -0.000562
    14  C    0.101496   0.052482  -0.003075   0.000961  -0.021217  -0.004762
    15  C    0.000015   0.000004   0.007646  -0.292331  -0.024855  -0.053517
    16  N    0.000001   0.000034   0.354370   0.386912  -0.065995  -0.002909
    17  N    0.386921   0.354363   0.000034   0.000001  -0.000651   0.000000
    18  C   -0.291996   0.007594   0.000004   0.000015  -0.000371  -0.001427
    19  C    5.302592  -0.092198  -0.000021  -0.000004  -0.000302   0.000040
    20  C   -0.092198   5.172149   0.000009  -0.000021   0.000062  -0.000203
    21  C   -0.000021   0.000009   5.172130  -0.092165   0.018531  -0.002414
    22  C   -0.000004  -0.000021  -0.092165   5.302466   0.003545   0.007874
    23  H   -0.000302   0.000062   0.018531   0.003545   0.528300   0.001079
    24  H    0.000040  -0.000203  -0.002414   0.007874   0.001079   0.629532
    25  H   -0.001047   0.001045   0.001046  -0.001053   0.001707  -0.002079
    26  H    0.003529   0.018560   0.000064  -0.000302   0.001758  -0.000145
    27  H    0.007851  -0.002410  -0.000203   0.000041  -0.000144   0.003199
    28  H    0.000002   0.000011   0.000534  -0.009378  -0.000646  -0.002391
    29  H    0.000001  -0.000004  -0.000596   0.020727   0.000306   0.002349
    30  H   -0.000002  -0.000001  -0.000449   0.016356  -0.001090   0.000936
    31  H    0.020767  -0.000596  -0.000004   0.000001  -0.000030   0.000031
    32  H    0.016447  -0.000461  -0.000001  -0.000002   0.000016   0.000048
    33  H   -0.009404   0.000536   0.000011   0.000002   0.000041  -0.000244
    34  H    0.409858   0.000534   0.000000   0.000000  -0.000015  -0.000006
    35  H    0.394306   0.002184   0.000001   0.000000  -0.000001  -0.000010
    36  H    0.387669  -0.019863  -0.000001   0.000000  -0.000003   0.000005
    37  H    0.008164   0.406752   0.000019   0.000003   0.000075   0.000020
    38  H   -0.008803   0.375279   0.000007  -0.000001   0.000050  -0.000011
    39  H   -0.008415   0.418567  -0.000004   0.000008  -0.000120  -0.000001
    40  H    0.000008  -0.000004   0.418573  -0.008409  -0.011325  -0.000316
    41  H    0.000003   0.000020   0.406761   0.008147  -0.015512   0.000344
    42  H   -0.000001   0.000007   0.375257  -0.008789   0.010644  -0.000401
    43  H    0.000000   0.000000   0.000528   0.409862  -0.000620  -0.000105
    44  H    0.000000   0.000001   0.002161   0.394458   0.000146  -0.001510
    45  H    0.000000  -0.000001  -0.019840   0.387561  -0.000349   0.000452
              25         26         27         28         29         30
     1  C    0.011210  -0.007078  -0.000564  -0.101711   0.015408   0.007095
     2  C    0.005210  -0.013287  -0.003470   0.018546   0.012579  -0.019696
     3  C   -0.009997   0.016532  -0.003174  -0.019644   0.002156   0.009699
     4  C   -0.027932  -0.026185   0.028796  -0.009907  -0.009137  -0.019943
     5  C   -0.085679  -0.050554  -0.066718  -0.007297  -0.023518  -0.001044
     6  C    0.037807  -0.021216  -0.004749  -0.004013  -0.013088   0.003662
     7  N    0.006879  -0.007322  -0.004345   0.001355  -0.000291  -0.000668
     8  C   -0.027886   0.062285   0.142727   0.000835  -0.001928  -0.003288
     9  C   -0.085600   0.028242   0.001810   0.012304   0.000218  -0.001694
    10  C    0.345632   0.001461   0.057212  -0.004937   0.005096   0.005794
    11  C   -0.009985   0.386221   0.022359   0.000320  -0.000165   0.000160
    12  C    0.005225  -0.056013   0.009573   0.000543   0.000019  -0.000124
    13  C    0.011199   0.000457  -0.164851   0.000371   0.000162  -0.000080
    14  C    0.037848   0.040935   0.342533   0.002979   0.000650  -0.000365
    15  C    0.010933  -0.000371  -0.001429   0.455207   0.322277   0.331894
    16  N   -0.000529  -0.000651   0.000000  -0.005237   0.005463   0.004597
    17  N   -0.000528  -0.065992  -0.002911   0.000000   0.000000   0.000000
    18  C    0.010914  -0.024867  -0.053428   0.000054  -0.000002   0.000006
    19  C   -0.001047   0.003529   0.007851   0.000002   0.000001  -0.000002
    20  C    0.001045   0.018560  -0.002410   0.000011  -0.000004  -0.000001
    21  C    0.001046   0.000064  -0.000203   0.000534  -0.000596  -0.000449
[...]
   11 Atom    -14.789845     -0.001515      0.001175      0.000838
   12 Atom    -14.738006     -0.005169     -0.003697      0.001121
   13 Atom    -14.764867      0.001936     -0.000530     -0.000758
   14 Atom    -14.777900     -0.000194      0.000135     -0.000096
   15 Atom    -14.778550      0.000901      0.000587      0.000688
   16 Atom    -18.384051     -0.014921     -0.010852      0.017855
   17 Atom    -18.384032      0.014915     -0.010841     -0.017856
   18 Atom    -14.778541     -0.000901      0.000588     -0.000687
   19 Atom    -14.748723      0.002403      0.000438      0.004159
   20 Atom    -14.751943     -0.000835      0.004635     -0.001722
   21 Atom    -14.751951      0.000835      0.004634      0.001723
   22 Atom    -14.748733     -0.002402      0.000440     -0.004160
   23 Atom     -1.116628      0.001629      0.019403     -0.000378
   24 Atom     -1.108677     -0.000490     -0.018813      0.000931
   25 Atom     -1.099714      0.000000     -0.018920      0.000001
   26 Atom     -1.116630     -0.001630      0.019403      0.000377
   27 Atom     -1.108675      0.000490     -0.018813     -0.000930
   28 Atom     -1.119654      0.002703     -0.016254      0.007592
   29 Atom     -1.121583     -0.011584      0.009390      0.010772
   30 Atom     -1.115939     -0.008217     -0.002896     -0.015508
   31 Atom     -1.121574      0.011586      0.009392     -0.010767
   32 Atom     -1.115930      0.008217     -0.002903      0.015510
   33 Atom     -1.119646     -0.002704     -0.016251     -0.007597
   34 Atom     -1.111707      0.001257     -0.017406      0.006389
   35 Atom     -1.115134      0.016877      0.005412     -0.004192
   36 Atom     -1.120399     -0.006065      0.009988      0.013113
   37 Atom     -1.121713     -0.007086      0.011149      0.011510
   38 Atom     -1.116012      0.016758      0.005842     -0.003717
   39 Atom     -1.116161     -0.009682      0.000601     -0.015835
   40 Atom     -1.116171      0.009681      0.000596      0.015839
   41 Atom     -1.121723      0.007088      0.011151     -0.011505
   42 Atom     -1.116019     -0.016757      0.005838      0.003715
   43 Atom     -1.111717     -0.001255     -0.017402     -0.006394
   44 Atom     -1.115143     -0.016874      0.005411      0.004189
   45 Atom     -1.120410      0.006069      0.009992     -0.013109
 -----------------------------------------------------------------
 -----------------------------------------------------
    Center         ---- Electric Field Gradient ----
                     XX            YY            ZZ
 -----------------------------------------------------
    1 Atom     -500.696766   -500.748693   -501.123384
    2 Atom     -500.765422   -500.695044   -501.058854
    3 Atom     -500.742964   -500.773543   -501.098128
    4 Atom     -500.761402   -500.745526   -501.208804
    5 Atom     -500.679223   -500.695189   -501.113670
    6 Atom     -500.763737   -500.836841   -501.184659
    7 Atom     -814.682929   -813.294714   -814.819947
    8 Atom     -500.761416   -500.745529   -501.208823
    9 Atom     -500.679225   -500.695177   -501.113663
   10 Atom     -500.798031   -500.891093   -501.356092
   11 Atom     -500.742913   -500.773475   -501.097962
   12 Atom     -500.765341   -500.695006   -501.058818
   13 Atom     -500.696678   -500.748629   -501.123234
   14 Atom     -500.763750   -500.836849   -501.184678
   15 Atom     -500.279290   -500.240191   -500.234190
   16 Atom     -812.236023   -812.334579   -811.894129
   17 Atom     -812.235839   -812.334613   -811.893010
   18 Atom     -500.279294   -500.240197   -500.234212
   19 Atom     -500.372647   -500.219899   -500.507278
   20 Atom     -500.211179   -500.553582   -500.265989
   21 Atom     -500.211219   -500.553522   -500.266065
   22 Atom     -500.372575   -500.219980   -500.507428
   23 Atom       -1.689740     -2.155142     -1.663737
   24 Atom       -1.700143     -2.155805     -1.673353
   25 Atom       -1.690191     -2.149150     -1.668721
   26 Atom       -1.689753     -2.155151     -1.663740
   27 Atom       -1.700146     -2.155808     -1.673354
   28 Atom       -1.707230     -2.056502     -1.762732
   29 Atom       -1.859212     -1.794536     -1.829923
   30 Atom       -1.775978     -1.692633     -2.027174
   31 Atom       -1.859270     -1.794627     -1.829810
   32 Atom       -1.775951     -1.692690     -2.027147
   33 Atom       -1.707239     -2.056336     -1.762880
   34 Atom       -1.707201     -2.119519     -1.758205
   35 Atom       -2.086656     -1.739336     -1.733706
   36 Atom       -1.748165     -1.829852     -1.934196
   37 Atom       -1.765464     -1.872974     -1.883001
   38 Atom       -2.091500     -1.752825     -1.713311
   39 Atom       -1.818526     -1.706036     -2.021850
   40 Atom       -1.818433     -1.706031     -2.021966
   41 Atom       -1.765524     -1.873075     -1.882848
   42 Atom       -2.091516     -1.752800     -1.713286
   43 Atom       -1.707184     -2.119428     -1.758288
   44 Atom       -2.086701     -1.739304     -1.733657
   45 Atom       -1.748231     -1.829955     -1.934030
 -----------------------------------------------------
 -----------------------------------------------------
    Center         ---- Electric Field Gradient ----
                     XY            XZ            YZ
 -----------------------------------------------------
    1 Atom       -0.065801     -0.021113      0.008573
    2 Atom        0.164741      0.027537     -0.009446
    3 Atom        0.024464      0.026827      0.024707
    4 Atom       -0.069540     -0.018025      0.000493
    5 Atom       -0.012874     -0.019079     -0.006680
    6 Atom       -0.038897     -0.021411     -0.017218
    7 Atom       -0.000004     -0.018261     -0.000114
    8 Atom        0.069550     -0.018027     -0.000555
    9 Atom        0.012874     -0.019090      0.006625
   10 Atom       -0.000002     -0.019547     -0.000037
   11 Atom       -0.024434      0.026857     -0.024739
   12 Atom       -0.164733      0.027570      0.009431
   13 Atom        0.065808     -0.021133     -0.008594
   14 Atom        0.038893     -0.021445      0.017191
   15 Atom       -0.070942      0.002295      0.016045
   16 Atom        0.498264     -0.700845     -0.627181
   17 Atom       -0.497844     -0.700945      0.627055
   18 Atom        0.070950      0.002327     -0.016043
   19 Atom        0.012579     -0.184004     -0.003715
   20 Atom        0.014961      0.016779      0.113680
   21 Atom       -0.014942      0.016784     -0.113755
   22 Atom       -0.012523     -0.183946      0.003793
   23 Atom       -0.027048      0.002460      0.006987
   24 Atom       -0.012601      0.002643      0.023814
   25 Atom        0.000004      0.000915      0.000040
   26 Atom        0.027065      0.002457     -0.006954
   27 Atom        0.012610      0.002645     -0.023789
   28 Atom        0.065326     -0.030271      0.171979
   29 Atom        0.144013      0.167681     -0.135690
   30 Atom       -0.034734     -0.183501     -0.056855
   31 Atom       -0.144080      0.167638      0.135674
   32 Atom        0.034816     -0.183468      0.057024
   33 Atom       -0.065344     -0.030314     -0.172103
   34 Atom        0.019644     -0.018945      0.141537
   35 Atom       -0.128618      0.092336      0.037430
   36 Atom        0.089623      0.104025     -0.181190
   37 Atom        0.111308      0.118012     -0.172321
   38 Atom       -0.130113      0.078255      0.034761
   39 Atom        0.004564     -0.205849      0.015240
   40 Atom       -0.004502     -0.205808     -0.015150
   41 Atom       -0.111381      0.118009      0.172294
   42 Atom        0.130101      0.078201     -0.034741
   43 Atom       -0.019594     -0.018933     -0.141639
   44 Atom        0.128597      0.092255     -0.037387
   45 Atom       -0.089708      0.104058      0.181191
 -----------------------------------------------------
 -----------------------------------------------------
    Center         ---- Electric Field Gradient ----
                   ----       Eigenvalues       ----
 -----------------------------------------------------
    1 Atom     -501.124504   -500.793399   -500.650940
    2 Atom     -501.063588   -500.894157   -500.561574
    3 Atom     -501.101737   -500.786880   -500.726018
    4 Atom     -501.209541   -500.823010   -500.683181
    5 Atom     -501.114631   -500.701808   -500.671644
    6 Atom     -501.186806   -500.851899   -500.746533
    7 Atom     -814.822339   -814.680537   -813.294714
    8 Atom     -501.209559   -500.823033   -500.683176
    9 Atom     -501.114623   -500.701801   -500.671640
   10 Atom     -501.356776   -500.891093   -500.797347
   11 Atom     -501.101581   -500.786789   -500.725979
   12 Atom     -501.063558   -500.894081   -500.561526
   13 Atom     -501.124356   -500.793334   -500.650850
   14 Atom     -501.186825   -500.851907   -500.746546
   15 Atom     -500.334665   -500.235452   -500.183554
   16 Atom     -812.788493   -812.778955   -810.897284
   17 Atom     -812.788032   -812.778488   -810.896942
   18 Atom     -500.334684   -500.235458   -500.183561
   19 Atom     -500.635936   -500.249288   -500.214601
   20 Atom     -500.593285   -500.240887   -500.196578
   21 Atom     -500.593285   -500.240911   -500.196609
   22 Atom     -500.635955   -500.249347   -500.214680
   23 Atom       -2.156812     -1.688344     -1.663464
   24 Atom       -2.157331     -1.699936     -1.672033
   25 Atom       -2.149150     -1.690230     -1.668682
   26 Atom       -2.156822     -1.688354     -1.663468
   27 Atom       -2.157332     -1.699939     -1.672036
   28 Atom       -2.147558     -1.695459     -1.683447
   29 Atom       -2.129687     -1.679461     -1.674523
   30 Atom       -2.133963     -1.685403     -1.676420
   31 Atom       -2.129698     -1.679471     -1.674539
   32 Atom       -2.133966     -1.685399     -1.676423
   33 Atom       -2.147553     -1.695456     -1.683446
   34 Atom       -2.169686     -1.719234     -1.696004
   35 Atom       -2.152692     -1.712727     -1.694277
   36 Atom       -2.120956     -1.704396     -1.686862
   37 Atom       -2.123807     -1.705930     -1.691701
   38 Atom       -2.152286     -1.712309     -1.693041
   39 Atom       -2.150303     -1.706590     -1.689518
   40 Atom       -2.150317     -1.706594     -1.689519
   41 Atom       -2.123806     -1.705936     -1.691705
   42 Atom       -2.152268     -1.712300     -1.693034
   43 Atom       -2.169671     -1.719228     -1.695999
   44 Atom       -2.152673     -1.712719     -1.694270
   45 Atom       -2.120956     -1.704397     -1.686863
 -----------------------------------------------------
 -----------------------------------------------------
    Center         ---- Electric Field Gradient ----
                       ( tensor representation )
                   3XX-RR        3YY-RR        3ZZ-RR
 -----------------------------------------------------
    1 Atom        0.159515      0.107588     -0.267103
    2 Atom        0.074352      0.144729     -0.219081
    3 Atom        0.128581      0.098002     -0.226583
    4 Atom        0.143842      0.159718     -0.303560
    5 Atom        0.150138      0.134171     -0.284309
    6 Atom        0.164675      0.091572     -0.256247
    7 Atom       -0.417066      0.971149     -0.554083
    8 Atom        0.143840      0.159727     -0.303567
    9 Atom        0.150130      0.134178     -0.284308
   10 Atom        0.217041      0.123979     -0.341020
   11 Atom        0.128537      0.097975     -0.226513
   12 Atom        0.074381      0.144715     -0.219096
   13 Atom        0.159502      0.107552     -0.267054
   14 Atom        0.164675      0.091577     -0.256252
   15 Atom       -0.028066      0.011032      0.017034
   16 Atom       -0.081113     -0.179668      0.260781
   17 Atom       -0.081352     -0.180125      0.261477
   18 Atom       -0.028059      0.011037      0.017022
   19 Atom       -0.006039      0.146709     -0.140670
   20 Atom        0.132404     -0.209999      0.077594
   21 Atom        0.132383     -0.209920      0.077537
   22 Atom       -0.005914      0.146681     -0.140767
   23 Atom        0.146466     -0.318936      0.172469
   24 Atom        0.142957     -0.312705      0.169748
   25 Atom        0.145830     -0.313129      0.167300
   26 Atom        0.146462     -0.318936      0.172475
   27 Atom        0.142957     -0.312705      0.169749
   28 Atom        0.134924     -0.214348      0.079423
   29 Atom       -0.031322      0.033354     -0.002032
   30 Atom        0.055950      0.139296     -0.195246
   31 Atom       -0.031368      0.033275     -0.001908
   32 Atom        0.055978      0.139239     -0.195218
   33 Atom        0.134913     -0.214185      0.079272
   34 Atom        0.154441     -0.257877      0.103437
   35 Atom       -0.233423      0.113897      0.119527
   36 Atom        0.089240      0.007552     -0.096792
   37 Atom        0.075015     -0.032494     -0.042521
   38 Atom       -0.238955      0.099720      0.139234
   39 Atom        0.030278      0.142768     -0.173046
   40 Atom        0.030377      0.142779     -0.173156
   41 Atom        0.074958     -0.032592     -0.042366
   42 Atom       -0.238982      0.099734      0.139248
   43 Atom        0.154450     -0.257795      0.103345
   44 Atom       -0.233480      0.113917      0.119563
   45 Atom        0.089175      0.007450     -0.096625
 -----------------------------------------------------
 -----------------------------------------------------
    Center         ---- Electric Field Gradient ----
                       ( tensor representation )
                   ----       Eigenvalues       ----
 -----------------------------------------------------
    1 Atom       -0.268223      0.062882      0.205341
    2 Atom       -0.223815     -0.054384      0.278199
    3 Atom       -0.230192      0.084665      0.145527
    4 Atom       -0.304297      0.082234      0.222063
    5 Atom       -0.285270      0.127553      0.157717
    6 Atom       -0.258393      0.076514      0.181879
    7 Atom       -0.556475     -0.414674      0.971149
    8 Atom       -0.304303      0.082223      0.222080
    9 Atom       -0.285268      0.127554      0.157715
   10 Atom       -0.341704      0.123979      0.217725
   11 Atom       -0.230131      0.084660      0.145471
   12 Atom       -0.223836     -0.054360      0.278195
   13 Atom       -0.268176      0.062846      0.205330
   14 Atom       -0.258399      0.076519      0.181880
   15 Atom       -0.083442      0.015772      0.067670
   16 Atom       -0.633582     -0.624044      1.257627
   17 Atom       -0.633544     -0.624001      1.257545
   18 Atom       -0.083450      0.015776      0.067673
   19 Atom       -0.269327      0.117320      0.152007
   20 Atom       -0.249702      0.102697      0.147005
   21 Atom       -0.249684      0.102691      0.146992
   22 Atom       -0.269295      0.117313      0.151981
   23 Atom       -0.320605      0.147863      0.172742
   24 Atom       -0.314231      0.143164      0.171067
   25 Atom       -0.313129      0.145791      0.167339
   26 Atom       -0.320607      0.147860      0.172747
   27 Atom       -0.314230      0.143163      0.171066
   28 Atom       -0.305403      0.146696      0.158708
   29 Atom       -0.301797      0.148430      0.153368
   30 Atom       -0.302034      0.146526      0.155509
   31 Atom       -0.301795      0.148431      0.153364
   32 Atom       -0.302037      0.146530      0.155506
   33 Atom       -0.305402      0.146696      0.158706
   34 Atom       -0.308044      0.142407      0.165638
   35 Atom       -0.299460      0.140505      0.158955
   36 Atom       -0.283551      0.133009      0.150543
   37 Atom       -0.283328      0.134549      0.148778
   38 Atom       -0.299741      0.140237      0.159504
   39 Atom       -0.301499      0.142214      0.159286
   40 Atom       -0.301507      0.142216      0.159291
   41 Atom       -0.283324      0.134547      0.148777
   42 Atom       -0.299734      0.140234      0.159500
   43 Atom       -0.308038      0.142405      0.165634
   44 Atom       -0.299452      0.140502      0.158950
   45 Atom       -0.283551      0.133008      0.150542
 -----------------------------------------------------

 Test job not archived.
 1|1|UNPC-NP-ALMACH|FOpt|RB3LYP|6-311++G(d,p)|C19H23N3|HERA|07-Sep-2018
 |0||# RB3LYP/6-311++G** Opt Test prop=EFG||C19N3H23||0,1|C,3.824675731
 5,0.0759489819,-1.3453613979|C,3.5623886044,-0.9994033383,-0.407149710
 3|C,2.304015072,-1.1381023568,0.1350494374|C,1.2258177489,-0.278173511
 5,-0.218578819|C,1.4739408454,0.7613112944,-1.181508612|C,2.7919893879
 ,0.9017244283,-1.7034892673|N,0.0221985748,-0.4835915506,0.3403683226|
 C,-0.9931660792,0.3209321705,-0.0133519521|C,-0.8474138866,1.394340560
 8,-0.9598508939|C,0.4088719085,1.5907323846,-1.5341945593|C,-2.2683741
 963,0.1238596532,0.5883313684|C,-3.3529281188,0.9177186811,0.287848976
 2|C,-3.2181272065,1.9726159907,-0.6992988464|C,-1.9927486491,2.1805334
 025,-1.2753393752|C,5.2169816816,0.3488616466,-1.8620363022|N,4.639217
 7213,-1.8373426542,-0.0184706342|N,-4.6286885151,0.6879256278,0.864282
 1193|C,-4.4092179075,2.7791002043,-1.1585112507|C,-5.109709979,1.72914
 30079,1.7747423141|C,-4.8789431228,-0.6428340543,1.401627921|C,4.51461
 0484,-2.5185856193,1.2632003183|C,5.1456559602,-2.7399563004,-1.054454
 8971|H,2.0794007414,-1.9211271519,0.8467013756|H,2.983773744,1.7226157
 733,-2.388928843|H,0.5577487842,2.3893995466,-2.255948207|H,-2.3393130
 533,-0.6788779447,1.3098602681|H,-1.8873401649,2.9540935566,-2.0309622
 292|H,5.3114506344,1.3953107577,-2.1582776241|H,5.9652918317,0.1325921
 205,-1.0966782307|H,5.4645955715,-0.2574727262,-2.7400625763|H,-5.3123
 017081,2.1653126837,-1.1732682107|H,-4.6097138584,3.6378496464,-0.5087
 180298|H,-4.2356169274,3.1706923781,-2.162631438|H,-4.9288233197,2.720
 2828264,1.3655732767|H,-6.1859684268,1.6124827141,1.9276822419|H,-4.61
 11529298,1.6716562701,2.7562312946|H,-4.3480665747,-0.8414659976,2.347
 3794655|H,-5.9501169538,-0.7429205152,1.594698026|H,-4.5870870591,-1.4
 00779926,0.6737526256|H,4.2138469321,-1.8097313568,2.0355518617|H,3.79
 14581339,-3.3508137144,1.2496519598|H,5.4903149158,-2.930815247,1.5329
 867502|H,5.2453563226,-2.2249257082,-2.0069845498|H,6.1302410868,-3.11
 54024053,-0.7629463356|H,4.4754352179,-3.6022762293,-1.2041021311||Ver
 sion=EM64W-G09RevD.01|State=1-A|HF=-902.3601858|RMSD=3.943e-009|RMSF=4
 .201e-006|Dipole=0.0383543,0.2086357,-0.1882977|Quadrupole=8.0853977,-
 2.5063951,-5.5790026,-6.679882,-5.5737343,-3.3501604|PG=C01 [X(C19H23N
 3)]||@


 A ROPE OVER THE TOP OF A FENCE HAS THE SAME LENGTH ON EACH SIDE.
 WEIGHS 1/3 POUND PER FOOT.  ON ONE END HANGS A MONKEY HOLDING A
 BANANA, AND ON THE OTHER END A WEIGHT EQUAL TO THE WEIGHT
 OF THE MONKEY.  THE BANANA WEIGHS TWO OUNCES PER INCH.
 THE ROPE IS AS LONG AS THE AGE OF THE MONKEY, 
 AND THE WEIGHT OF THE MONKEY (IN OUNCES) IS AS MUCH
 AS THE AGE OF THE MONKEY'S MOTHER.  THE COMBINED AGES OF MONKEY
 AND MOTHER ARE THIRTY YEARS.  HALF THE WEIGHT OF THE MONKEY,
  PLUS THE WEIGHT OF THE BANANA, IS ONE FOURTH AS MUCH AS THE WEIGHT
 OF THE WEIGHT AND THE ROPE.
 THE MONKEY'S MOTHER IS HALF AS OLD AS THE MONKEY WILL BE
 WHEN IT IS 3 TIMES AS OLD AS ITS MOTHER WAS WHEN
 SHE WAS HALF AS OLD AS THE MONKEY WILL BE WHEN IT IS
 AS OLD AS ITS MOTHER WILL BE WHEN SHE IS 4 TIMES AS
 OLD AS THE MONKEY WAS WHEN IT WAS TWICE AS OLD AS 
 ITS MOTHER WAS WHEN SHE WAS ONE THIRD AS OLD AS THE
 MONKEY WAS WHEN IT WAS AS OLD AS ITS MOTHER WAS WHEN 
 SHE WAS 3 TIMES AS OLD AS THE MONKEY WAS WHEN IT WAS AS OLD AS ITS
 MOTHER WAS WHEN SHE WAS 3 TIMES AS OLD AS THE MONKEY 
 WAS WHEN IT WAS ONE FOURTH WAS OLD AS IT IS NOW.

 HOW LONG IS THE BANANA?
 Job cpu time:       0 days  2 hours 52 minutes 53.0 seconds.
 File lengths (MBytes):  RWF=    269 Int=      0 D2E=      0 Chk=     36 Scr=      1
 Normal termination of Gaussian 09 at Fri Sep 07 14:35:05 2018.
