 Entering Link 1 = C:\G09W\l1.exe PID=     26676.
  
 Copyright (c) 1988,1990,1992,1993,1995,1998,2003,2009,2013,
            Gaussian, Inc.  All Rights Reserved.
  
 This is part of the Gaussian(R) 09 program.  It is based on
 the Gaussian(R) 03 system (copyright 2003, Gaussian, Inc.),
 the Gaussian(R) 98 system (copyright 1998, Gaussian, Inc.),
 the Gaussian(R) 94 system (copyright 1995, Gaussian, Inc.),
 the Gaussian 92(TM) system (copyright 1992, Gaussian, Inc.),
 the Gaussian 90(TM) system (copyright 1990, Gaussian, Inc.),
 the Gaussian 88(TM) system (copyright 1988, Gaussian, Inc.),
 the Gaussian 86(TM) system (copyright 1986, Carnegie Mellon
 University), and the Gaussian 82(TM) system (copyright 1983,
 Carnegie Mellon University). Gaussian is a federally registered
 trademark of Gaussian, Inc.
  
 This software contains proprietary and confidential information,
 including trade secrets, belonging to Gaussian, Inc.
  
 This software is provided under written license and may be
 used, copied, transmitted, or stored only in accord with that
 written license.
  
 The following legend is applicable only to US Government
 contracts under FAR:
  
                    RESTRICTED RIGHTS LEGEND
  
 Use, reproduction and disclosure by the US Government is
 subject to restrictions as set forth in subparagraphs (a)
 and (c) of the Commercial Computer Software - Restricted
 Rights clause in FAR 52.227-19.
  
 Gaussian, Inc.
 340 Quinnipiac St., Bldg. 40, Wallingford CT 06492
  
  
 ---------------------------------------------------------------
 Warning -- This program may not be used in any manner that
 competes with the business of Gaussian, Inc. or will provide
 assistance to any competitor of Gaussian, Inc.  The licensee
 of this program is prohibited from giving any competitor of
 Gaussian, Inc. access to this program.  By using this program,
 the user acknowledges that Gaussian, Inc. is engaged in the
 business of creating and licensing software in the field of
 computational chemistry and represents and warrants to the
 licensee that it is not a competitor of Gaussian, Inc. and that
 it will not use this program in any manner prohibited above.
 ---------------------------------------------------------------
  

 Cite this work as:
 Gaussian 09, Revision D.01,
 M. J. Frisch, G. W. Trucks, H. B. Schlegel, G. E. Scuseria, 
 M. A. Robb, J. R. Cheeseman, G. Scalmani, V. Barone, B. Mennucci, 
 G. A. Petersson, H. Nakatsuji, M. Caricato, X. Li, H. P. Hratchian, 
 A. F. Izmaylov, J. Bloino, G. Zheng, J. L. Sonnenberg, M. Hada, 
 M. Ehara, K. Toyota, R. Fukuda, J. Hasegawa, M. Ishida, T. Nakajima, 
 Y. Honda, O. Kitao, H. Nakai, T. Vreven, J. A. Montgomery, Jr., 
 J. E. Peralta, F. Ogliaro, M. Bearpark, J. J. Heyd, E. Brothers, 
 K. N. Kudin, V. N. Staroverov, T. Keith, R. Kobayashi, J. Normand, 
 K. Raghavachari, A. Rendell, J. C. Burant, S. S. Iyengar, J. Tomasi, 
 M. Cossi, N. Rega, J. M. Millam, M. Klene, J. E. Knox, J. B. Cross, 
 V. Bakken, C. Adamo, J. Jaramillo, R. Gomperts, R. E. Stratmann, 
 O. Yazyev, A. J. Austin, R. Cammi, C. Pomelli, J. W. Ochterski, 
 R. L. Martin, K. Morokuma, V. G. Zakrzewski, G. A. Voth, 
 P. Salvador, J. J. Dannenberg, S. Dapprich, A. D. Daniels, 
 O. Farkas, J. B. Foresman, J. V. Ortiz, J. Cioslowski, 
 and D. J. Fox, Gaussian, Inc., Wallingford CT, 2013.
 
 ******************************************
 Gaussian 09:  EM64W-G09RevD.01 13-Apr-2013
                06-Aug-2018 
 ******************************************
 %Chk=Anth_279.chk
 %Mem=64GB
 %NProcShared=20
 Will use up to   20 processors via shared memory.
 -------------------------------------
 # RB3LYP/6-311++G** Opt Test prop=EFG
 -------------------------------------
 1/14=-1,18=20,19=15,26=3,38=1/1,3;
 2/9=110,12=2,17=6,18=5,40=1/2;
 3/5=4,6=6,7=1111,11=2,16=1,25=1,30=1,71=1,74=-5,116=1/1,2,3;
 4//1;
 5/5=2,38=5/2;
 6/7=2,8=2,9=2,10=2,14=1,28=1/1,2;
 7//1,2,3,16;
 1/14=-1,18=20,19=15,26=3/3(2);
 2/9=110/2;
 99//99;
 2/9=110/2;
 3/5=4,6=6,7=1111,11=2,16=1,25=1,30=1,71=1,74=-5,116=1/1,2,3;
 4/5=5,16=3,69=1/1;
 5/5=2,38=5/2;
 7//1,2,3,16;
 1/14=-1,18=20,19=15,26=3/3(-5);
 2/9=110/2;
 6/7=2,8=2,9=2,10=2,14=1,19=2,28=1/1,2;
 99/9=1/99;
 ---------
 C12N3H10O
 ---------
 Symbolic Z-matrix:
 Charge =  1 Multiplicity = 1
 C                    -3.60046   0.27928   0.05601 
 C                    -3.39264  -1.03348  -0.13097 
 C                    -2.13718  -1.50471  -0.20627 
 C                    -1.08868  -0.66995  -0.0956 
 C                    -1.29648   0.6495    0.09233 
 C                    -2.55589   1.11507   0.1669 
 O                     0.06138  -1.09162  -0.16323 
 C                     1.03981  -0.35794  -0.06642 
 C                     0.85509   0.96488   0.12192 
 N                    -0.31551   1.44562   0.19803 
 C                     2.28635  -0.85622  -0.14578 
 C                     3.3513   -0.04486  -0.03854 
 C                     3.16853   1.27156   0.149 
 C                     1.92546   1.77198   0.22856 
 N                    -4.37427  -1.82837  -0.23653 
 N                     4.52221  -0.52419  -0.11476 
 H                    -4.6257    0.68199   0.11999 
 H                    -1.95954  -2.58313  -0.35994 
 H                    -2.74327   2.19183   0.32038 
 H                     2.42984  -1.93964  -0.30013 
 H                     4.03301   1.95127   0.23894 
 H                     1.7918    2.85658   0.38288 
 H                    -4.2246   -2.85658  -0.38288 
 H                    -5.35627  -1.46347  -0.17817 
 H                     4.67787  -1.55151  -0.26125 
 H                     5.35627   0.10692  -0.0315 
 

 GradGradGradGradGradGradGradGradGradGradGradGradGradGradGradGradGradGrad
 Berny optimization.
 Initialization pass.
                           ----------------------------
                           !    Initial Parameters    !
                           ! (Angstroms and Degrees)  !
 --------------------------                            --------------------------
 ! Name  Definition              Value          Derivative Info.                !
 --------------------------------------------------------------------------------
 ! R1    R(1,2)                  1.3422         estimate D2E/DX2                !
 ! R2    R(1,6)                  1.3424         estimate D2E/DX2                !
 ! R3    R(1,17)                 1.1034         estimate D2E/DX2                !
 ! R4    R(2,3)                  1.3431         estimate D2E/DX2                !
 ! R5    R(2,15)                 1.2675         estimate D2E/DX2                !
 ! R6    R(3,4)                  1.3448         estimate D2E/DX2                !
 ! R7    R(3,18)                 1.1037         estimate D2E/DX2                !
 ! R8    R(4,5)                  1.3489         estimate D2E/DX2                !
 ! R9    R(4,7)                  1.2268         estimate D2E/DX2                !
 ! R10   R(5,6)                  1.3448         estimate D2E/DX2                !
 ! R11   R(5,10)                 1.2678         estimate D2E/DX2                !
 ! R12   R(6,19)                 1.1037         estimate D2E/DX2                !
 ! R13   R(7,8)                  1.2268         estimate D2E/DX2                !
 ! R14   R(8,9)                  1.3489         estimate D2E/DX2                !
 ! R15   R(8,11)                 1.3448         estimate D2E/DX2                !
 ! R16   R(9,10)                 1.2678         estimate D2E/DX2                !
 ! R17   R(9,14)                 1.3448         estimate D2E/DX2                !
 ! R18   R(11,12)                1.3431         estimate D2E/DX2                !
 ! R19   R(11,20)                1.1037         estimate D2E/DX2                !
 ! R20   R(12,13)                1.3422         estimate D2E/DX2                !
 ! R21   R(12,16)                1.2675         estimate D2E/DX2                !
 ! R22   R(13,14)                1.3424         estimate D2E/DX2                !
 ! R23   R(13,21)                1.1034         estimate D2E/DX2                !
 ! R24   R(14,22)                1.1037         estimate D2E/DX2                !
 ! R25   R(15,23)                1.0493         estimate D2E/DX2                !
 ! R26   R(15,24)                1.0492         estimate D2E/DX2                !
 ! R27   R(16,25)                1.0493         estimate D2E/DX2                !
 ! R28   R(16,26)                1.0492         estimate D2E/DX2                !
 ! A1    A(2,1,6)              119.9994         estimate D2E/DX2                !
 ! A2    A(2,1,17)             120.5928         estimate D2E/DX2                !
 ! A3    A(6,1,17)             119.4078         estimate D2E/DX2                !
 ! A4    A(1,2,3)              119.7157         estimate D2E/DX2                !
 ! A5    A(1,2,15)             120.3353         estimate D2E/DX2                !
 ! A6    A(3,2,15)             119.949          estimate D2E/DX2                !
 ! A7    A(2,3,4)              120.425          estimate D2E/DX2                !
 ! A8    A(2,3,18)             120.0708         estimate D2E/DX2                !
 ! A9    A(4,3,18)             119.5042         estimate D2E/DX2                !
 ! A10   A(3,4,5)              119.9041         estimate D2E/DX2                !
 ! A11   A(3,4,7)              120.8652         estimate D2E/DX2                !
 ! A12   A(5,4,7)              119.2307         estimate D2E/DX2                !
 ! A13   A(4,5,6)              119.3837         estimate D2E/DX2                !
 ! A14   A(4,5,10)             120.4423         estimate D2E/DX2                !
 ! A15   A(6,5,10)             120.1739         estimate D2E/DX2                !
 ! A16   A(1,6,5)              120.572          estimate D2E/DX2                !
 ! A17   A(1,6,19)             119.1314         estimate D2E/DX2                !
 ! A18   A(5,6,19)             120.2966         estimate D2E/DX2                !
 ! A19   A(4,7,8)              122.5318         estimate D2E/DX2                !
 ! A20   A(7,8,9)              119.2287         estimate D2E/DX2                !
 ! A21   A(7,8,11)             120.8671         estimate D2E/DX2                !
 ! A22   A(9,8,11)             119.9042         estimate D2E/DX2                !
 ! A23   A(8,9,10)             120.445          estimate D2E/DX2                !
 ! A24   A(8,9,14)             119.383          estimate D2E/DX2                !
 ! A25   A(10,9,14)            120.172          estimate D2E/DX2                !
 ! A26   A(5,10,9)             118.1215         estimate D2E/DX2                !
 ! A27   A(8,11,12)            120.4262         estimate D2E/DX2                !
 ! A28   A(8,11,20)            119.5027         estimate D2E/DX2                !
 ! A29   A(12,11,20)           120.0711         estimate D2E/DX2                !
 ! A30   A(11,12,13)           119.7142         estimate D2E/DX2                !
 ! A31   A(11,12,16)           119.9484         estimate D2E/DX2                !
 ! A32   A(13,12,16)           120.3374         estimate D2E/DX2                !
 ! A33   A(12,13,14)           120.0001         estimate D2E/DX2                !
 ! A34   A(12,13,21)           120.5903         estimate D2E/DX2                !
 ! A35   A(14,13,21)           119.4096         estimate D2E/DX2                !
 ! A36   A(9,14,13)            120.5721         estimate D2E/DX2                !
 ! A37   A(9,14,22)            120.2982         estimate D2E/DX2                !
 ! A38   A(13,14,22)           119.1297         estimate D2E/DX2                !
 ! A39   A(2,15,23)            121.0419         estimate D2E/DX2                !
 ! A40   A(2,15,24)            120.1388         estimate D2E/DX2                !
 ! A41   A(23,15,24)           118.8193         estimate D2E/DX2                !
 ! A42   A(12,16,25)           121.042          estimate D2E/DX2                !
 ! A43   A(12,16,26)           120.1393         estimate D2E/DX2                !
 ! A44   A(25,16,26)           118.8187         estimate D2E/DX2                !
 ! D1    D(6,1,2,3)              0.0            estimate D2E/DX2                !
 ! D2    D(6,1,2,15)          -179.9989         estimate D2E/DX2                !
 ! D3    D(17,1,2,3)           179.998          estimate D2E/DX2                !
 ! D4    D(17,1,2,15)           -0.0009         estimate D2E/DX2                !
 ! D5    D(2,1,6,5)              0.0021         estimate D2E/DX2                !
 ! D6    D(2,1,6,19)          -179.9995         estimate D2E/DX2                !
 ! D7    D(17,1,6,5)          -179.9959         estimate D2E/DX2                !
 ! D8    D(17,1,6,19)            0.0025         estimate D2E/DX2                !
 ! D9    D(1,2,3,4)             -0.0024         estimate D2E/DX2                !
 ! D10   D(1,2,3,18)          -179.9986         estimate D2E/DX2                !
 ! D11   D(15,2,3,4)           179.9965         estimate D2E/DX2                !
 ! D12   D(15,2,3,18)            0.0003         estimate D2E/DX2                !
 ! D13   D(1,2,15,23)         -179.9996         estimate D2E/DX2                !
 ! D14   D(1,2,15,24)           -0.0001         estimate D2E/DX2                !
 ! D15   D(3,2,15,23)            0.0015         estimate D2E/DX2                !
 ! D16   D(3,2,15,24)         -179.999          estimate D2E/DX2                !
 ! D17   D(2,3,4,5)              0.0027         estimate D2E/DX2                !
 ! D18   D(2,3,4,7)           -179.9963         estimate D2E/DX2                !
 ! D19   D(18,3,4,5)           179.999          estimate D2E/DX2                !
 ! D20   D(18,3,4,7)             0.0            estimate D2E/DX2                !
 ! D21   D(3,4,5,6)             -0.0006         estimate D2E/DX2                !
 ! D22   D(3,4,5,10)           179.9984         estimate D2E/DX2                !
 ! D23   D(7,4,5,6)            179.9984         estimate D2E/DX2                !
 ! D24   D(7,4,5,10)            -0.0026         estimate D2E/DX2                !
 ! D25   D(3,4,7,8)            179.9967         estimate D2E/DX2                !
 ! D26   D(5,4,7,8)             -0.0023         estimate D2E/DX2                !
 ! D27   D(4,5,6,1)             -0.0018         estimate D2E/DX2                !
 ! D28   D(4,5,6,19)           179.9998         estimate D2E/DX2                !
 ! D29   D(10,5,6,1)           179.9992         estimate D2E/DX2                !
 ! D30   D(10,5,6,19)            0.0008         estimate D2E/DX2                !
 ! D31   D(4,5,10,9)             0.0022         estimate D2E/DX2                !
 ! D32   D(6,5,10,9)          -179.9988         estimate D2E/DX2                !
 ! D33   D(4,7,8,9)              0.007          estimate D2E/DX2                !
 ! D34   D(4,7,8,11)          -179.989          estimate D2E/DX2                !
 ! D35   D(7,8,9,10)            -0.0072         estimate D2E/DX2                !
 ! D36   D(7,8,9,14)           179.9949         estimate D2E/DX2                !
 ! D37   D(11,8,9,10)          179.9888         estimate D2E/DX2                !
 ! D38   D(11,8,9,14)           -0.009          estimate D2E/DX2                !
 ! D39   D(7,8,11,12)         -179.9974         estimate D2E/DX2                !
 ! D40   D(7,8,11,20)            0.0048         estimate D2E/DX2                !
 ! D41   D(9,8,11,12)            0.0066         estimate D2E/DX2                !
 ! D42   D(9,8,11,20)         -179.9912         estimate D2E/DX2                !
 ! D43   D(8,9,10,5)             0.0025         estimate D2E/DX2                !
 ! D44   D(14,9,10,5)         -179.9996         estimate D2E/DX2                !
 ! D45   D(8,9,14,13)            0.0055         estimate D2E/DX2                !
 ! D46   D(8,9,14,22)         -179.9985         estimate D2E/DX2                !
 ! D47   D(10,9,14,13)        -179.9924         estimate D2E/DX2                !
 ! D48   D(10,9,14,22)           0.0036         estimate D2E/DX2                !
 ! D49   D(8,11,12,13)          -0.0005         estimate D2E/DX2                !
 ! D50   D(8,11,12,16)        -179.9961         estimate D2E/DX2                !
 ! D51   D(20,11,12,13)        179.9972         estimate D2E/DX2                !
 ! D52   D(20,11,12,16)          0.0017         estimate D2E/DX2                !
 ! D53   D(11,12,13,14)         -0.003          estimate D2E/DX2                !
 ! D54   D(11,12,13,21)       -179.9945         estimate D2E/DX2                !
 ! D55   D(16,12,13,14)        179.9925         estimate D2E/DX2                !
 ! D56   D(16,12,13,21)          0.001          estimate D2E/DX2                !
 ! D57   D(11,12,16,25)         -0.0017         estimate D2E/DX2                !
 ! D58   D(11,12,16,26)        179.9928         estimate D2E/DX2                !
 ! D59   D(13,12,16,25)       -179.9972         estimate D2E/DX2                !
 ! D60   D(13,12,16,26)         -0.0027         estimate D2E/DX2                !
 ! D61   D(12,13,14,9)           0.0005         estimate D2E/DX2                !
 ! D62   D(12,13,14,22)       -179.9955         estimate D2E/DX2                !
 ! D63   D(21,13,14,9)         179.9921         estimate D2E/DX2                !
 ! D64   D(21,13,14,22)         -0.004          estimate D2E/DX2                !
 --------------------------------------------------------------------------------
 Trust Radius=3.00D-01 FncErr=1.00D-07 GrdErr=1.00D-06
 Number of steps in this run=    146 maximum allowed number of steps=    156.
 GradGradGradGradGradGradGradGradGradGradGradGradGradGradGradGradGradGrad

                          Input orientation:                          
 ---------------------------------------------------------------------
 Center     Atomic      Atomic             Coordinates (Angstroms)
 Number     Number       Type             X           Y           Z
 ---------------------------------------------------------------------
      1          6           0       -3.600458    0.279277    0.056007
      2          6           0       -3.392642   -1.033484   -0.130969
      3          6           0       -2.137183   -1.504710   -0.206266
      4          6           0       -1.088676   -0.669947   -0.095599
      5          6           0       -1.296482    0.649501    0.092328
      6          6           0       -2.555892    1.115065    0.166895
      7          8           0        0.061379   -1.091618   -0.163231
      8          6           0        1.039815   -0.357944   -0.066423
      9          6           0        0.855094    0.964882    0.121917
     10          7           0       -0.315509    1.445616    0.198034
     11          6           0        2.286353   -0.856222   -0.145778
     12          6           0        3.351298   -0.044857   -0.038544
     13          6           0        3.168528    1.271556    0.149000
     14          6           0        1.925463    1.771975    0.228560
     15          7           0       -4.374275   -1.828369   -0.236533
     16          7           0        4.522211   -0.524187   -0.114757
     17          1           0       -4.625701    0.681988    0.119992
     18          1           0       -1.959539   -2.583132   -0.359936
     19          1           0       -2.743274    2.191827    0.320384
     20          1           0        2.429835   -1.939636   -0.300125
     21          1           0        4.033009    1.951270    0.238938
     22          1           0        1.791804    2.856584    0.382884
     23          1           0       -4.224603   -2.856584   -0.382884
     24          1           0       -5.356265   -1.463468   -0.178173
     25          1           0        4.677871   -1.551510   -0.261254
     26          1           0        5.356265    0.106917   -0.031503
 ---------------------------------------------------------------------
                    Distance matrix (angstroms):
                    1          2          3          4          5
     1  C    0.000000
     2  C    1.342196   0.000000
     3  C    2.322191   1.343094   0.000000
     4  C    2.689435   2.332739   1.344784   0.000000
     5  C    2.333815   2.697441   2.331644   1.348867   0.000000
     6  C    1.342369   2.324895   2.679139   2.325488   1.344776
     7  O    3.916180   3.454661   2.237448   1.226787   2.222744
     8  C    4.685421   4.484105   3.380524   2.151435   2.549202
     9  C    4.508474   4.701136   3.893624   2.549161   2.174769
    10  N    3.488755   3.965215   3.490899   2.271478   1.267786
    11  C    5.998718   5.681780   4.471226   3.380538   3.893662
    12  C    6.959951   6.816645   5.681789   4.484123   4.701183
    13  C    6.841961   6.959924   5.998703   4.685408   4.508490
    14  C    5.726581   6.023463   5.237445   3.892698   3.414592
    15  N    2.264187   1.267513   2.260587   3.486684   3.964946
    16  N    8.164096   7.931239   6.731815   5.612813   5.939496
    17  H    1.103356   2.127501   3.328786   3.792724   3.329492
    18  H    3.325509   2.123115   1.103706   2.118621   3.330781
    19  H    2.112465   3.320848   3.782736   3.331739   2.126966
    20  H    6.435436   5.894995   4.588641   3.746179   4.554458
    21  H    7.816575   8.011609   7.086132   5.763189   5.488130
    22  H    5.985470   6.501935   5.899570   4.578486   3.806987
    23  H    3.227353   2.019731   2.493207   3.833791   4.592641
    24  H    2.484926   2.010704   3.219469   4.341522   4.584719
    25  H    8.484289   8.088171   6.815437   5.835894   6.376705
    26  H    8.958809   8.823479   7.666789   6.491910   6.675985
                    6          7          8          9         10
     6  C    0.000000
     7  O    3.439265   0.000000
     8  C    3.892724   1.226779   0.000000
     9  C    3.414587   2.222720   1.348875   0.000000
    10  N    2.264851   2.590389   2.271491   1.267758   0.000000
    11  C    5.237468   2.237460   1.344781   2.331648   3.490895
    12  C    6.023497   3.454681   2.332757   2.697472   3.965218
    13  C    5.726587   3.916179   2.689442   2.333829   3.488727
    14  C    4.529666   3.439255   2.325498   1.344791   2.264817
    15  N    3.483256   4.497021   5.612794   5.939448   5.232725
    16  N    7.270902   4.497038   3.486697   3.964983   5.232733
    17  H    2.115151   5.019424   5.763183   5.488091   4.378010
    18  H    3.782836   2.519408   3.746163   4.554420   4.386910
    19  H    1.103670   4.345224   4.578506   3.806972   2.542802
    20  H    5.865729   2.519416   2.118613   3.330789   4.386913
    21  H    6.642142   5.019437   3.792746   3.329534   4.378010
    22  H    4.688497   4.345217   3.331749   2.126985   2.542788
    23  H    4.342908   4.640366   5.835876   6.376656   5.841867
    24  H    3.822302   5.430411   6.491880   6.675921   5.832111
    25  H    7.721480   4.640378   3.833798   4.592676   5.841879
    26  H    7.978593   5.430438   4.341550   4.584777   5.832137
                   11         12         13         14         15
    11  C    0.000000
    12  C    1.343101   0.000000
    13  C    2.322190   1.342207   0.000000
    14  C    2.679140   2.324915   1.342371   0.000000
    15  N    6.731810   7.931242   8.164071   7.270866   0.000000
    16  N    2.260591   1.267518   2.264226   3.483293   8.992396
    17  H    7.086128   8.011613   7.816549   6.642109   2.547983
    18  H    4.588647   5.895008   6.435426   5.865708   2.532952
    19  H    5.899581   6.501953   5.985455   4.688477   4.374048
    20  H    1.103719   2.123136   3.325528   3.782850   6.805317
    21  H    3.328787   2.127498   1.103371   2.115184   9.230069
    22  H    3.782723   3.320841   2.112436   1.103656   7.768719
    23  H    6.815439   8.088180   8.484269   7.721446   1.049308
    24  H    7.666773   8.823469   8.958766   7.978539   1.049220
    25  H    2.493214   2.019752   3.227402   4.342951   9.056413
    26  H    3.219481   2.010716   2.484987   3.822362   9.923244
                   16         17         18         19         20
    16  N    0.000000
    17  H    9.230074   0.000000
    18  H    6.805325   4.242612   0.000000
    19  H    7.768742   2.421426   4.886441   0.000000
    20  H    2.532962   7.538567   4.436696   6.649442   0.000000
    21  H    2.548000   8.752056   7.538573   6.781041   4.242630
    22  H    4.374058   6.781029   6.649426   4.583966   4.886442
    23  H    9.056419   3.596562   2.281626   5.308048   6.717826
    24  H    9.923233   2.285959   3.581122   4.520781   7.801600
    25  H    1.049325   9.575506   6.717827   8.332123   2.281626
    26  H    1.049223   9.999665   7.801617   8.370974   3.581135
                   21         22         23         24         25
    21  H    0.000000
    22  H    2.421428   0.000000
    23  H    9.575504   8.332097   0.000000
    24  H    9.999644   8.370933   1.806471   0.000000
    25  H    3.596597   5.308068   8.998447  10.034866   0.000000
    26  H    2.285997   4.520815  10.034881  10.828016   1.806484
                   26
    26  H    0.000000
 Stoichiometry    C12H10N3O(1+)
 Framework group  C1[X(C12H10N3O)]
 Deg. of freedom    72
 Full point group                 C1      NOp   1
 Largest Abelian subgroup         C1      NOp   1
 Largest concise Abelian subgroup C1      NOp   1
                         Standard orientation:                         
 ---------------------------------------------------------------------
 Center     Atomic      Atomic             Coordinates (Angstroms)
 Number     Number       Type             X           Y           Z
 ---------------------------------------------------------------------
      1          6           0        3.420988    0.866859    0.000152
      2          6           0        3.408313   -0.475276    0.000027
      3          6           0        2.235606   -1.129998   -0.000132
      4          6           0        1.075717   -0.449484   -0.000117
      5          6           0        1.087400    0.899333    0.000004
      6          6           0        2.264846    1.548982    0.000120
      7          8           0       -0.000001   -1.039263   -0.000193
      8          6           0       -1.075718   -0.449501   -0.000123
      9          6           0       -1.087369    0.899323   -0.000099
     10          7           0       -0.000004    1.551126   -0.000011
     11          6           0       -2.235620   -1.129988    0.000011
     12          6           0       -3.408333   -0.475263    0.000035
     13          6           0       -3.420973    0.866885   -0.000064
     14          6           0       -2.264820    1.548992   -0.000126
     15          7           0        4.496189   -1.125749    0.000077
     16          7           0       -4.496207   -1.125749    0.000237
     17          1           0        4.376024    1.419399    0.000317
     18          1           0        2.218343   -2.233569   -0.000213
     19          1           0        2.291986    2.652318    0.000215
     20          1           0       -2.218352   -2.233572    0.000139
     21          1           0       -4.376032    1.419416    0.000045
     22          1           0       -2.291980    2.652315   -0.000131
     23          1           0        4.499219   -2.175052   -0.000026
     24          1           0        5.413993   -0.617321    0.000216
     25          1           0       -4.499228   -2.175070    0.000361
     26          1           0       -5.414023   -0.617336    0.000370
 ---------------------------------------------------------------------
 Rotational constants (GHZ):      1.9363997      0.3190442      0.2739138
 Standard basis: 6-311++G(d,p) (5D, 7F)
 There are   438 symmetry adapted cartesian basis functions of A   symmetry.
 There are   422 symmetry adapted basis functions of A   symmetry.
   422 basis functions,   666 primitive gaussians,   438 cartesian basis functions
    55 alpha electrons       55 beta electrons
       nuclear repulsion energy      1057.0592572456 Hartrees.
 NAtoms=   26 NActive=   26 NUniq=   26 SFac= 1.00D+00 NAtFMM=   60 NAOKFM=F Big=F
 Integral buffers will be    131072 words long.
 Raffenetti 2 integral format.
 Two-electron integral symmetry is turned on.
 One-electron integrals computed using PRISM.
 NBasis=   422 RedAO= T EigKep=  1.07D-06  NBF=   422
 NBsUse=   418 1.00D-06 EigRej=  3.59D-07 NBFU=   418
 ExpMin= 3.60D-02 ExpMax= 8.59D+03 ExpMxC= 1.30D+03 IAcc=3 IRadAn=         5 AccDes= 0.00D+00
 Harris functional with IExCor=  402 and IRadAn=       5 diagonalized for initial guess.
 HarFok:  IExCor=  402 AccDes= 0.00D+00 IRadAn=         5 IDoV= 1 UseB2=F ITyADJ=14
 ICtDFT=  3500011 ScaDFX=  1.000000  1.000000  1.000000  1.000000
 FoFCou: FMM=F IPFlag=           0 FMFlag=      100000 FMFlg1=           0
         NFxFlg=           0 DoJE=T BraDBF=F KetDBF=T FulRan=T
         wScrn=  0.000000 ICntrl=     500 IOpCl=  0 I1Cent=   200000004 NGrid=           0
         NMat0=    1 NMatS0=      1 NMatT0=    0 NMatD0=    1 NMtDS0=    0 NMtDT0=    0
 Petite list used in FoFCou.
 Keep R1 ints in memory in canonical form, NReq=4026001761.
 Requested convergence on RMS density matrix=1.00D-08 within 128 cycles.
 Requested convergence on MAX density matrix=1.00D-06.
 Requested convergence on             energy=1.00D-06.
 No special actions if energy rises.
 SCF Done:  E(RB3LYP) =  -702.629161164     A.U. after   17 cycles
            NFock= 17  Conv=0.39D-08     -V/T= 1.9993

 **********************************************************************

            Population analysis using the SCF density.

 **********************************************************************

 Orbital symmetries:
       Occupied  (A) (A) (A) (A) (A) (A) (A) (A) (A) (A) (A) (A)
                 (A) (A) (A) (A) (A) (A) (A) (A) (A) (A) (A) (A)
                 (A) (A) (A) (A) (A) (A) (A) (A) (A) (A) (A) (A)
                 (A) (A) (A) (A) (A) (A) (A) (A) (A) (A) (A) (A)
                 (A) (A) (A) (A) (A) (A) (A)
       Virtual   (A) (A) (A) (A) (A) (A) (A) (A) (A) (A) (A) (A)
                 (A) (A) (A) (A) (A) (A) (A) (A) (A) (A) (A) (A)
                 (A) (A) (A) (A) (A) (A) (A) (A) (A) (A) (A) (A)
                 (A) (A) (A) (A) (A) (A) (A) (A) (A) (A) (A) (A)
                 (A) (A) (A) (A) (A) (A) (A) (A) (A) (A) (A) (A)
                 (A) (A) (A) (A) (A) (A) (A) (A) (A) (A) (A) (A)
                 (A) (A) (A) (A) (A) (A) (A) (A) (A) (A) (A) (A)
                 (A) (A) (A) (A) (A) (A) (A) (A) (A) (A) (A) (A)
                 (A) (A) (A) (A) (A) (A) (A) (A) (A) (A) (A) (A)
                 (A) (A) (A) (A) (A) (A) (A) (A) (A) (A) (A) (A)
                 (A) (A) (A) (A) (A) (A) (A) (A) (A) (A) (A) (A)
                 (A) (A) (A) (A) (A) (A) (A) (A) (A) (A) (A) (A)
                 (A) (A) (A) (A) (A) (A) (A) (A) (A) (A) (A) (A)
                 (A) (A) (A) (A) (A) (A) (A) (A) (A) (A) (A) (A)
                 (A) (A) (A) (A) (A) (A) (A) (A) (A) (A) (A) (A)
                 (A) (A) (A) (A) (A) (A) (A) (A) (A) (A) (A) (A)
                 (A) (A) (A) (A) (A) (A) (A) (A) (A) (A) (A) (A)
                 (A) (A) (A) (A) (A) (A) (A) (A) (A) (A) (A) (A)
                 (A) (A) (A) (A) (A) (A) (A) (A) (A) (A) (A) (A)
                 (A) (A) (A) (A) (A) (A) (A) (A) (A) (A) (A) (A)
                 (A) (A) (A) (A) (A) (A) (A) (A) (A) (A) (A) (A)
                 (A) (A) (A) (A) (A) (A) (A) (A) (A) (A) (A) (A)
                 (A) (A) (A) (A) (A) (A) (A) (A) (A) (A) (A) (A)
                 (A) (A) (A) (A) (A) (A) (A) (A) (A) (A) (A) (A)
                 (A) (A) (A) (A) (A) (A) (A) (A) (A) (A) (A) (A)
                 (A) (A) (A) (A) (A) (A) (A) (A) (A) (A) (A) (A)
                 (A) (A) (A) (A) (A) (A) (A) (A) (A) (A) (A) (A)
                 (A) (A) (A) (A) (A) (A) (A) (A) (A) (A) (A) (A)
                 (A) (A) (A) (A) (A) (A) (A) (A) (A) (A) (A) (A)
                 (A) (A) (A) (A) (A) (A) (A) (A) (A) (A) (A) (A)
                 (A) (A) (A)
 The electronic state is 1-A.
 Alpha  occ. eigenvalues --  -19.36416 -14.48477 -14.48476 -14.46324 -10.38641
 Alpha  occ. eigenvalues --  -10.38640 -10.35913 -10.35913 -10.33448 -10.33447
 Alpha  occ. eigenvalues --  -10.31121 -10.31121 -10.30592 -10.30591 -10.30083
 Alpha  occ. eigenvalues --  -10.30083  -1.37476  -1.14374  -1.11812  -1.11554
 Alpha  occ. eigenvalues --   -1.04858  -0.99358  -0.96639  -0.90863  -0.89938
 Alpha  occ. eigenvalues --   -0.85125  -0.84744  -0.81455  -0.77352  -0.75981
 Alpha  occ. eigenvalues --   -0.74629  -0.71113  -0.69391  -0.69152  -0.66933
 Alpha  occ. eigenvalues --   -0.66385  -0.64590  -0.62565  -0.58731  -0.58137
 Alpha  occ. eigenvalues --   -0.57433  -0.57393  -0.57342  -0.56941  -0.54713
 Alpha  occ. eigenvalues --   -0.54248  -0.53587  -0.51792  -0.50912  -0.49263
 Alpha  occ. eigenvalues --   -0.42137  -0.41620  -0.41049  -0.37515  -0.35016
 Alpha virt. eigenvalues --   -0.23870  -0.15441  -0.13743  -0.12660  -0.12058
 Alpha virt. eigenvalues --   -0.11815  -0.10109  -0.09705  -0.09070  -0.08041
 Alpha virt. eigenvalues --   -0.07959  -0.07358  -0.06611  -0.05784  -0.05025
 Alpha virt. eigenvalues --   -0.04440  -0.04168  -0.04022  -0.03105  -0.02063
 Alpha virt. eigenvalues --   -0.01752  -0.01460  -0.01195  -0.01077  -0.00797
 Alpha virt. eigenvalues --   -0.00101   0.01119   0.01556   0.01732   0.01748
 Alpha virt. eigenvalues --    0.02136   0.02440   0.02666   0.02709   0.02904
 Alpha virt. eigenvalues --    0.03700   0.03751   0.03920   0.04679   0.04682
 Alpha virt. eigenvalues --    0.06020   0.06189   0.06606   0.06666   0.07433
 Alpha virt. eigenvalues --    0.07487   0.07536   0.07827   0.08086   0.08714
 Alpha virt. eigenvalues --    0.09165   0.09677   0.09759   0.10051   0.11588
 Alpha virt. eigenvalues --    0.11697   0.12436   0.13151   0.13202   0.13562
 Alpha virt. eigenvalues --    0.13965   0.14050   0.14888   0.15206   0.15498
 Alpha virt. eigenvalues --    0.15564   0.16284   0.16946   0.17076   0.17265
 Alpha virt. eigenvalues --    0.17280   0.17522   0.18317   0.18487   0.19718
 Alpha virt. eigenvalues --    0.19785   0.19908   0.20668   0.21082   0.21389
 Alpha virt. eigenvalues --    0.21621   0.22199   0.22751   0.22947   0.23881
 Alpha virt. eigenvalues --    0.24706   0.25249   0.26331   0.27126   0.27174
 Alpha virt. eigenvalues --    0.27977   0.28633   0.29305   0.30427   0.31264
 Alpha virt. eigenvalues --    0.32166   0.33862   0.35518   0.36686   0.38057
 Alpha virt. eigenvalues --    0.39751   0.40579   0.40900   0.42580   0.43098
 Alpha virt. eigenvalues --    0.44311   0.45009   0.45129   0.45980   0.46834
 Alpha virt. eigenvalues --    0.46943   0.47096   0.47462   0.48300   0.49248
 Alpha virt. eigenvalues --    0.49951   0.50973   0.51536   0.52182   0.53010
 Alpha virt. eigenvalues --    0.53468   0.54088   0.54430   0.55078   0.57063
 Alpha virt. eigenvalues --    0.57997   0.58392   0.59481   0.61630   0.62027
 Alpha virt. eigenvalues --    0.62866   0.63211   0.64489   0.65111   0.66605
 Alpha virt. eigenvalues --    0.66807   0.68260   0.69501   0.70340   0.71012
 Alpha virt. eigenvalues --    0.71189   0.72216   0.72812   0.73858   0.74932
 Alpha virt. eigenvalues --    0.76108   0.76118   0.77062   0.77217   0.77862
 Alpha virt. eigenvalues --    0.78959   0.79851   0.80450   0.81071   0.82248
 Alpha virt. eigenvalues --    0.82465   0.82578   0.83182   0.83802   0.85869
 Alpha virt. eigenvalues --    0.88188   0.88518   0.89104   0.89182   0.89750
 Alpha virt. eigenvalues --    0.90563   0.90991   0.93220   0.94445   0.95133
 Alpha virt. eigenvalues --    0.96130   0.96584   0.96690   0.98274   1.01573
 Alpha virt. eigenvalues --    1.01896   1.03508   1.04794   1.05792   1.08682
 Alpha virt. eigenvalues --    1.10255   1.11022   1.11720   1.12372   1.18419
 Alpha virt. eigenvalues --    1.21186   1.21398   1.21898   1.25356   1.28696
 Alpha virt. eigenvalues --    1.31888   1.34131   1.36058   1.36459   1.37746
 Alpha virt. eigenvalues --    1.41825   1.42818   1.43316   1.44675   1.46304
 Alpha virt. eigenvalues --    1.46425   1.46569   1.46964   1.48947   1.48995
 Alpha virt. eigenvalues --    1.50902   1.52325   1.52747   1.54266   1.55129
 Alpha virt. eigenvalues --    1.57899   1.58311   1.59171   1.59787   1.62292
 Alpha virt. eigenvalues --    1.65554   1.66145   1.66901   1.68693   1.69078
 Alpha virt. eigenvalues --    1.71965   1.73949   1.76811   1.76979   1.78214
 Alpha virt. eigenvalues --    1.79297   1.79390   1.80454   1.82189   1.83658
 Alpha virt. eigenvalues --    1.85141   1.85510   1.86076   1.87326   1.88372
 Alpha virt. eigenvalues --    1.88488   1.89112   1.89848   1.94279   1.95151
 Alpha virt. eigenvalues --    1.95615   1.97756   1.99800   2.03890   2.04319
 Alpha virt. eigenvalues --    2.04960   2.06974   2.07294   2.12406   2.15248
 Alpha virt. eigenvalues --    2.16141   2.17386   2.25581   2.27146   2.31306
 Alpha virt. eigenvalues --    2.33381   2.35773   2.36678   2.37925   2.39603
 Alpha virt. eigenvalues --    2.40468   2.41321   2.42557   2.42660   2.46119
 Alpha virt. eigenvalues --    2.48643   2.50768   2.50991   2.54975   2.55627
 Alpha virt. eigenvalues --    2.56646   2.56906   2.60269   2.60324   2.62933
 Alpha virt. eigenvalues --    2.63592   2.65508   2.65852   2.66248   2.68863
 Alpha virt. eigenvalues --    2.69798   2.70379   2.71604   2.71706   2.74284
 Alpha virt. eigenvalues --    2.75629   2.76507   2.76683   2.77095   2.79847
 Alpha virt. eigenvalues --    2.81577   2.84958   2.85845   2.86151   2.86557
 Alpha virt. eigenvalues --    2.87224   2.92888   2.93094   2.97385   2.99825
 Alpha virt. eigenvalues --    3.08694   3.09614   3.12863   3.13779   3.15800
 Alpha virt. eigenvalues --    3.18675   3.24802   3.28250   3.29406   3.33422
 Alpha virt. eigenvalues --    3.33980   3.36489   3.37058   3.39053   3.41904
 Alpha virt. eigenvalues --    3.44502   3.45419   3.52144   3.54672   3.59675
 Alpha virt. eigenvalues --    3.60995   3.73030   3.73638   3.74591   3.77523
 Alpha virt. eigenvalues --    3.82253   3.82551   3.83804   3.89776   3.89918
 Alpha virt. eigenvalues --    4.02287   4.02408   4.07598   4.08252   4.15164
 Alpha virt. eigenvalues --    4.28469   4.42183   4.54606   4.54625   4.81022
 Alpha virt. eigenvalues --    4.81849   4.85777   4.88785   4.89311   5.22975
 Alpha virt. eigenvalues --    5.38969   6.14228  23.50332  23.63410  23.95806
 Alpha virt. eigenvalues --   23.96507  23.99127  24.00750  24.14071  24.14764
 Alpha virt. eigenvalues --   24.16046  24.16604  24.26356  24.28280  35.57674
 Alpha virt. eigenvalues --   35.59730  35.73263  49.94475
          Condensed to atoms (all electrons):
               1          2          3          4          5          6
     1  C   11.075190  -0.907875  -4.482013   1.050466  -0.096318  -1.851092
     2  C   -0.907875   8.594262   0.451953  -0.620596   0.611355  -0.212688
     3  C   -4.482013   0.451953  13.578379  -3.843631  -3.543478   4.015299
     4  C    1.050466  -0.620596  -3.843631  15.675212   2.120083  -3.801331
     5  C   -0.096318   0.611355  -3.543478   2.120083  14.274972  -2.451882
     6  C   -1.851092  -0.212688   4.015299  -3.801331  -2.451882  11.002641
     7  O    0.259986  -0.059632  -0.883731  -0.229640   0.694492   0.011461
     8  C    0.086638  -0.284707  -0.138042   0.301363  -3.714626  -1.862809
     9  C    0.552565  -0.344281  -1.169986  -3.714784   0.247586  -0.734095
    10  N    0.150866   0.034178  -0.032610   0.206245  -0.075537  -0.258675
    11  C   -0.455916  -0.090288   1.569248  -0.138003  -1.170273   0.959016
    12  C   -0.007655   0.023126  -0.090277  -0.284538  -0.344236  -0.101344
    13  C    0.120478  -0.007642  -0.455926   0.086570   0.552659  -0.250247
    14  C   -0.250294  -0.101360   0.959228  -1.862818  -0.734561   1.620840
    15  N   -0.085743  -0.172935   0.004787   0.079469  -0.017819   0.067686
    16  N   -0.000452   0.000234   0.002906   0.016207  -0.002234   0.001304
    17  H    0.716129  -0.175316  -0.165203   0.033368   0.033295  -0.105374
    18  H   -0.114054  -0.108130   0.505515   0.097046  -0.081641   0.003471
    19  H   -0.186160   0.048653   0.080501  -0.008894  -0.024322   0.399101
    20  H    0.002182  -0.001626   0.045531   0.026878  -0.053224   0.010398
    21  H    0.001728  -0.000867  -0.004685  -0.010058   0.003041  -0.003374
    22  H   -0.008922   0.000408   0.020595   0.004486  -0.002804   0.024108
    23  H    0.004794  -0.055330   0.030188  -0.005509   0.009641  -0.001351
    24  H   -0.045957  -0.012294   0.022217   0.000167   0.013646   0.015926
    25  H   -0.000420  -0.000461   0.000947  -0.007670   0.000351   0.001169
    26  H    0.000130   0.000089  -0.000099  -0.002613  -0.002383  -0.000596
               7          8          9         10         11         12
     1  C    0.259986   0.086638   0.552565   0.150866  -0.455916  -0.007655
     2  C   -0.059632  -0.284707  -0.344281   0.034178  -0.090288   0.023126
     3  C   -0.883731  -0.138042  -1.169986  -0.032610   1.569248  -0.090277
     4  C   -0.229640   0.301363  -3.714784   0.206245  -0.138003  -0.284538
     5  C    0.694492  -3.714626   0.247586  -0.075537  -1.170273  -0.344236
     6  C    0.011461  -1.862809  -0.734095  -0.258675   0.959016  -0.101344
     7  O    8.516884  -0.229658   0.694515  -0.084693  -0.883746  -0.059625
     8  C   -0.229658  15.675228   2.120065   0.206254  -3.843286  -0.620704
     9  C    0.694515   2.120065  14.274463  -0.075531  -3.543198   0.610942
    10  N   -0.084693   0.206254  -0.075531   6.917213  -0.032612   0.034189
    11  C   -0.883746  -3.843286  -3.543198  -0.032612  13.577817   0.452118
    12  C   -0.059625  -0.620704   0.610942   0.034189   0.452118   8.594206
    13  C    0.259999   1.050410  -0.095989   0.150859  -4.481863  -0.907845
    14  C    0.011432  -3.801573  -2.452076  -0.258682   4.015429  -0.212618
    15  N   -0.009366   0.016207  -0.002234   0.003199   0.002905   0.000234
    16  N   -0.009366   0.079474  -0.017806   0.003199   0.004850  -0.172928
    17  H    0.004383  -0.010055   0.003041  -0.000072  -0.004685  -0.000867
    18  H   -0.027113   0.026873  -0.053225   0.002113   0.045537  -0.001624
    19  H   -0.006068   0.004483  -0.002798  -0.019055   0.020593   0.000408
    20  H   -0.027111   0.097031  -0.081649   0.002114   0.505504  -0.108114
    21  H    0.004383   0.033365   0.033311  -0.000073  -0.165211  -0.175349
    22  H   -0.006068  -0.008888  -0.024334  -0.019058   0.080501   0.048641
    23  H   -0.000358  -0.007670   0.000352   0.000082   0.000947  -0.000461
    24  H   -0.000560  -0.002614  -0.002383  -0.000147  -0.000099   0.000089
    25  H   -0.000358  -0.005507   0.009642   0.000082   0.030193  -0.055331
    26  H   -0.000560   0.000169   0.013644  -0.000147   0.022214  -0.012301
              13         14         15         16         17         18
     1  C    0.120478  -0.250294  -0.085743  -0.000452   0.716129  -0.114054
     2  C   -0.007642  -0.101360  -0.172935   0.000234  -0.175316  -0.108130
     3  C   -0.455926   0.959228   0.004787   0.002906  -0.165203   0.505515
     4  C    0.086570  -1.862818   0.079469   0.016207   0.033368   0.097046
     5  C    0.552659  -0.734561  -0.017819  -0.002234   0.033295  -0.081641
     6  C   -0.250247   1.620840   0.067686   0.001304  -0.105374   0.003471
     7  O    0.259999   0.011432  -0.009366  -0.009366   0.004383  -0.027113
     8  C    1.050410  -3.801573   0.016207   0.079474  -0.010055   0.026873
     9  C   -0.095989  -2.452076  -0.002234  -0.017806   0.003041  -0.053225
    10  N    0.150859  -0.258682   0.003199   0.003199  -0.000072   0.002113
    11  C   -4.481863   4.015429   0.002905   0.004850  -0.004685   0.045537
    12  C   -0.907845  -0.212618   0.000234  -0.172928  -0.000867  -0.001624
    13  C   11.074908  -1.851288  -0.000452  -0.085812   0.001729   0.002181
    14  C   -1.851288  11.003463   0.001304   0.067673  -0.003376   0.010399
    15  N   -0.000452   0.001304   6.682533  -0.000001  -0.014813  -0.013703
    16  N   -0.085812   0.067673  -0.000001   6.682533  -0.000002  -0.000126
    17  H    0.001729  -0.003376  -0.014813  -0.000002   0.521712  -0.004168
    18  H    0.002181   0.010399  -0.013703  -0.000126  -0.004168   0.524787
    19  H   -0.008922   0.024110  -0.002524   0.000009  -0.022060   0.002688
    20  H   -0.114037   0.003472  -0.000126  -0.013704   0.000142  -0.000473
    21  H    0.716143  -0.105361  -0.000002  -0.014810   0.000023   0.000142
    22  H   -0.186155   0.399121   0.000009  -0.002524  -0.000116  -0.000101
    23  H   -0.000420   0.001169   0.372013   0.000007   0.001997  -0.003386
    24  H    0.000130  -0.000596   0.359830   0.000000  -0.003807   0.001958
    25  H    0.004789  -0.001351   0.000007   0.372009  -0.000007   0.000145
    26  H   -0.045944   0.015922   0.000000   0.359827   0.000000  -0.000059
              19         20         21         22         23         24
     1  C   -0.186160   0.002182   0.001728  -0.008922   0.004794  -0.045957
     2  C    0.048653  -0.001626  -0.000867   0.000408  -0.055330  -0.012294
     3  C    0.080501   0.045531  -0.004685   0.020595   0.030188   0.022217
     4  C   -0.008894   0.026878  -0.010058   0.004486  -0.005509   0.000167
     5  C   -0.024322  -0.053224   0.003041  -0.002804   0.009641   0.013646
     6  C    0.399101   0.010398  -0.003374   0.024108  -0.001351   0.015926
     7  O   -0.006068  -0.027111   0.004383  -0.006068  -0.000358  -0.000560
     8  C    0.004483   0.097031   0.033365  -0.008888  -0.007670  -0.002614
     9  C   -0.002798  -0.081649   0.033311  -0.024334   0.000352  -0.002383
    10  N   -0.019055   0.002114  -0.000073  -0.019058   0.000082  -0.000147
    11  C    0.020593   0.505504  -0.165211   0.080501   0.000947  -0.000099
    12  C    0.000408  -0.108114  -0.175349   0.048641  -0.000461   0.000089
    13  C   -0.008922  -0.114037   0.716143  -0.186155  -0.000420   0.000130
    14  C    0.024110   0.003472  -0.105361   0.399121   0.001169  -0.000596
    15  N   -0.002524  -0.000126  -0.000002   0.000009   0.372013   0.359830
    16  N    0.000009  -0.013704  -0.014810  -0.002524   0.000007   0.000000
    17  H   -0.022060   0.000142   0.000023  -0.000116   0.001997  -0.003807
    18  H    0.002688  -0.000473   0.000142  -0.000101  -0.003386   0.001958
    19  H    0.470958  -0.000101  -0.000116   0.001232  -0.000398   0.000963
    20  H   -0.000101   0.524787  -0.004168   0.002688   0.000145  -0.000059
    21  H   -0.000116  -0.004168   0.521715  -0.022060  -0.000007   0.000000
    22  H    0.001232   0.002688  -0.022060   0.470956   0.000028  -0.000022
    23  H   -0.000398   0.000145  -0.000007   0.000028   0.376109  -0.014854
    24  H    0.000963  -0.000059   0.000000  -0.000022  -0.014854   0.375306
    25  H    0.000028  -0.003385   0.001997  -0.000398   0.000000   0.000000
    26  H   -0.000022   0.001958  -0.003807   0.000963   0.000000   0.000000
              25         26
     1  C   -0.000420   0.000130
     2  C   -0.000461   0.000089
     3  C    0.000947  -0.000099
     4  C   -0.007670  -0.002613
     5  C    0.000351  -0.002383
     6  C    0.001169  -0.000596
     7  O   -0.000358  -0.000560
     8  C   -0.005507   0.000169
     9  C    0.009642   0.013644
    10  N    0.000082  -0.000147
    11  C    0.030193   0.022214
    12  C   -0.055331  -0.012301
    13  C    0.004789  -0.045944
    14  C   -0.001351   0.015922
    15  N    0.000007   0.000000
    16  N    0.372009   0.359827
    17  H   -0.000007   0.000000
    18  H    0.000145  -0.000059
    19  H    0.000028  -0.000022
    20  H   -0.003385   0.001958
    21  H    0.001997  -0.003807
    22  H   -0.000398   0.000963
    23  H    0.000000   0.000000
    24  H    0.000000   0.000000
    25  H    0.376108  -0.014854
    26  H   -0.014854   0.375303
 Mulliken charges:
               1
     1  C    0.471719
     2  C   -0.608232
     3  C   -0.477615
     4  C    0.832522
     5  C   -0.245785
     6  C   -0.497562
     7  O    0.060120
     8  C    0.832581
     9  C   -0.245756
    10  N    0.146302
    11  C   -0.477695
    12  C   -0.608138
    13  C    0.471686
    14  C   -0.497609
    15  N   -0.270464
    16  N   -0.270468
    17  H    0.194101
    18  H    0.184946
    19  H    0.227713
    20  H    0.184947
    21  H    0.194099
    22  H    0.227715
    23  H    0.292270
    24  H    0.293162
    25  H    0.292274
    26  H    0.293166
 Sum of Mulliken charges =   1.00000
 Mulliken charges with hydrogens summed into heavy atoms:
               1
     1  C    0.665820
     2  C   -0.608232
     3  C   -0.292669
     4  C    0.832522
     5  C   -0.245785
     6  C   -0.269849
     7  O    0.060120
     8  C    0.832581
     9  C   -0.245756
    10  N    0.146302
    11  C   -0.292748
    12  C   -0.608138
    13  C    0.665785
    14  C   -0.269893
    15  N    0.314969
    16  N    0.314972
 Electronic spatial extent (au):  <R**2>=           3762.8353
 Charge=              1.0000 electrons
 Dipole moment (field-independent basis, Debye):
    X=             -0.0003    Y=             -3.2248    Z=              0.0008  Tot=              3.2248
 Quadrupole moment (field-independent basis, Debye-Ang):
   XX=              1.8456   YY=            -71.9906   ZZ=            -93.0840
   XY=              0.0005   XZ=             -0.0020   YZ=             -0.0006
 Traceless Quadrupole moment (field-independent basis, Debye-Ang):
   XX=             56.2553   YY=            -17.5810   ZZ=            -38.6743
   XY=              0.0005   XZ=             -0.0020   YZ=             -0.0006
 Octapole moment (field-independent basis, Debye-Ang**2):
  XXX=             -0.0084  YYY=            -31.9974  ZZZ=             -0.0006  XYY=             -0.0010
  XXY=            -63.9086  XXZ=              0.0297  XZZ=              0.0001  YZZ=             -2.3256
  YYZ=              0.0030  XYZ=              0.0083
 Hexadecapole moment (field-independent basis, Debye-Ang**3):
 XXXX=          -1756.9847 YYYY=           -655.8420 ZZZZ=            -97.5713 XXXY=              0.0142
 XXXZ=             -0.0559 YYYX=              0.0025 YYYZ=             -0.0033 ZZZX=             -0.0027
 ZZZY=              0.0002 XXYY=           -535.9331 XXZZ=           -774.6337 YYZZ=           -157.6747
 XXYZ=             -0.0146 YYXZ=             -0.0121 ZZXY=              0.0000
 N-N= 1.057059257246D+03 E-N=-3.736193880835D+03  KE= 7.031254867443D+02

 **********************************************************************

            Electrostatic Properties Using The SCF Density

 **********************************************************************

       Atomic Center    1 is at   3.420988  0.866859  0.000152
       Atomic Center    2 is at   3.408313 -0.475276  0.000027
       Atomic Center    3 is at   2.235606 -1.129998 -0.000132
       Atomic Center    4 is at   1.075717 -0.449484 -0.000117
       Atomic Center    5 is at   1.087400  0.899333  0.000004
       Atomic Center    6 is at   2.264846  1.548982  0.000120
       Atomic Center    7 is at  -0.000001 -1.039263 -0.000193
       Atomic Center    8 is at  -1.075718 -0.449501 -0.000123
       Atomic Center    9 is at  -1.087369  0.899323 -0.000099
       Atomic Center   10 is at  -0.000004  1.551126 -0.000011
       Atomic Center   11 is at  -2.235620 -1.129988  0.000011
       Atomic Center   12 is at  -3.408333 -0.475263  0.000035
       Atomic Center   13 is at  -3.420973  0.866885 -0.000064
       Atomic Center   14 is at  -2.264820  1.548992 -0.000126
       Atomic Center   15 is at   4.496189 -1.125749  0.000077
       Atomic Center   16 is at  -4.496207 -1.125749  0.000237
       Atomic Center   17 is at   4.376024  1.419399  0.000317
       Atomic Center   18 is at   2.218343 -2.233569 -0.000213
       Atomic Center   19 is at   2.291986  2.652318  0.000215
       Atomic Center   20 is at  -2.218352 -2.233572  0.000139
       Atomic Center   21 is at  -4.376032  1.419416  0.000045
       Atomic Center   22 is at  -2.291980  2.652315 -0.000131
       Atomic Center   23 is at   4.499219 -2.175052 -0.000026
       Atomic Center   24 is at   5.413993 -0.617321  0.000216
       Atomic Center   25 is at  -4.499228 -2.175070  0.000361
       Atomic Center   26 is at  -5.414023 -0.617336  0.000370
 -----------------------------------------------------------------

              Electrostatic Properties (Atomic Units)

 -----------------------------------------------------------------
    Center     Electric         -------- Electric Field --------
               Potential          X             Y             Z
 -----------------------------------------------------------------
    1 Atom    -14.648077      0.006274      0.017186      0.000002
    2 Atom    -14.597856     -0.010833      0.003688     -0.000001
    3 Atom    -14.652089     -0.004628     -0.015045     -0.000002
    4 Atom    -14.569937      0.036585      0.009157      0.000002
    5 Atom    -14.622494      0.008209      0.002012      0.000001
    6 Atom    -14.644402      0.010056      0.014382      0.000002
    7 Atom    -22.128900      0.000002     -0.065494     -0.000007
    8 Atom    -14.569935     -0.036586      0.009160      0.000002
    9 Atom    -14.622493     -0.008216      0.002010     -0.000001
   10 Atom    -18.261299      0.000005      0.058140      0.000003
   11 Atom    -14.652085      0.004627     -0.015047      0.000001
   12 Atom    -14.597848      0.010834      0.003688     -0.000001
   13 Atom    -14.648072     -0.006275      0.017185     -0.000001
   14 Atom    -14.644400     -0.010055      0.014379      0.000000
   15 Atom    -18.224407      0.022586     -0.013020      0.000001
   16 Atom    -18.224399     -0.022585     -0.013021      0.000002
   17 Atom     -0.965272      0.005880      0.002499     -0.000001
   18 Atom     -0.957061     -0.001833     -0.006198     -0.000001
   19 Atom     -0.971174     -0.004423      0.005140      0.000000
   20 Atom     -0.957058      0.001831     -0.006190     -0.000002
   21 Atom     -0.965270     -0.005870      0.002497     -0.000004
   22 Atom     -0.971175      0.004426      0.005149      0.000000
   23 Atom     -0.866481      0.005588      0.012660      0.000002
   24 Atom     -0.867634     -0.007636     -0.011443     -0.000002
   25 Atom     -0.866472     -0.005587      0.012673     -0.000001
   26 Atom     -0.867630      0.007638     -0.011443     -0.000002
 -----------------------------------------------------------------
 -----------------------------------------------------
    Center         ---- Electric Field Gradient ----
                     XX            YY            ZZ
 -----------------------------------------------------
    1 Atom     -500.818136   -500.840209   -501.200758
    2 Atom     -501.078659   -500.935429   -501.677077
    3 Atom     -500.651408   -500.754316   -500.820213
    4 Atom     -501.135759   -500.824220   -501.360942
    5 Atom     -500.902288   -500.917055   -501.261942
    6 Atom     -500.968854   -501.057835   -501.645518
    7 Atom    -1236.802312  -1234.327982  -1234.895117
    8 Atom     -501.135738   -500.824236   -501.360954
    9 Atom     -500.902311   -500.917091   -501.261997
   10 Atom     -814.724914   -813.321079   -815.684275
   11 Atom     -500.651392   -500.754307   -500.820185
   12 Atom     -501.078620   -500.935383   -501.677040
   13 Atom     -500.818108   -500.840198   -501.200725
   14 Atom     -500.968881   -501.057837   -501.645549
   15 Atom     -812.202196   -812.259997   -810.934006
   16 Atom     -812.202195   -812.260013   -810.934022
   17 Atom       -1.967309     -1.760232     -1.629738
   18 Atom       -1.656149     -2.054417     -1.614603
   19 Atom       -1.640388     -2.045054     -1.625103
   20 Atom       -1.656132     -2.054367     -1.614586
   21 Atom       -1.967265     -1.760199     -1.629719
   22 Atom       -1.640406     -2.045104     -1.625121
   23 Atom       -1.544203     -1.970737     -1.475645
   24 Atom       -1.873368     -1.641445     -1.475042
   25 Atom       -1.544169     -1.970649     -1.475615
   26 Atom       -1.873359     -1.641429     -1.475035
 -----------------------------------------------------
 -----------------------------------------------------
    Center         ---- Electric Field Gradient ----
                     XY            XZ            YZ
 -----------------------------------------------------
    1 Atom       -0.069564      0.000023      0.000028
    2 Atom        0.119026      0.000065      0.000080
    3 Atom        0.005306      0.000006      0.000010
    4 Atom       -0.266973     -0.000023      0.000037
    5 Atom        0.087305      0.000028      0.000033
    6 Atom       -0.032957      0.000047      0.000045
    7 Atom       -0.000043      0.000001     -0.000044
    8 Atom        0.266966     -0.000015     -0.000027
    9 Atom       -0.087279      0.000002     -0.000001
   10 Atom        0.000003      0.000061      0.000140
   11 Atom       -0.005303     -0.000013      0.000012
   12 Atom       -0.119026     -0.000055     -0.000057
   13 Atom        0.069570     -0.000020     -0.000021
   14 Atom        0.032956     -0.000021     -0.000016
   15 Atom       -0.043387     -0.000137     -0.000133
   16 Atom        0.043378      0.000234      0.000122
   17 Atom       -0.171829     -0.000055     -0.000032
   18 Atom       -0.003384     -0.000003     -0.000032
   19 Atom       -0.010166     -0.000002     -0.000037
   20 Atom        0.003384      0.000003      0.000050
   21 Atom        0.171810      0.000037     -0.000016
   22 Atom        0.010171      0.000000      0.000002
   23 Atom        0.003884     -0.000006     -0.000048
   24 Atom       -0.178403     -0.000056     -0.000033
   25 Atom       -0.003880      0.000012      0.000059
   26 Atom        0.178396      0.000060     -0.000020
 -----------------------------------------------------
 -----------------------------------------------------
    Center         ---- Electric Field Gradient ----
                   ----       Eigenvalues       ----
 -----------------------------------------------------
    1 Atom     -501.200758   -500.899606   -500.758738
    2 Atom     -501.677077   -501.145954   -500.868135
    3 Atom     -500.820213   -500.754589   -500.651136
    4 Atom     -501.360942   -501.289083   -500.670896
    5 Atom     -501.261942   -500.997288   -500.822055
    6 Atom     -501.645518   -501.068711   -500.957977
    7 Atom    -1236.802312  -1234.895117  -1234.327982
    8 Atom     -501.360954   -501.289065   -500.670909
    9 Atom     -501.261997   -500.997292   -500.822110
   10 Atom     -815.684275   -814.724914   -813.321079
   11 Atom     -500.820185   -500.754579   -500.651119
   12 Atom     -501.677040   -501.145913   -500.868091
   13 Atom     -501.200725   -500.899594   -500.758712
   14 Atom     -501.645549   -501.068716   -500.958002
   15 Atom     -812.283228   -812.178965   -810.934006
   16 Atom     -812.283233   -812.178975   -810.934022
   17 Atom       -2.064383     -1.663158     -1.629738
   18 Atom       -2.054446     -1.656121     -1.614603
   19 Atom       -2.045309     -1.640132     -1.625103
   20 Atom       -2.054395     -1.656103     -1.614586
   21 Atom       -2.064326     -1.663138     -1.629719
   22 Atom       -2.045360     -1.640150     -1.625121
   23 Atom       -1.970773     -1.544168     -1.475645
   24 Atom       -1.970185     -1.544628     -1.475042
   25 Atom       -1.970685     -1.544134     -1.475615
   26 Atom       -1.970168     -1.544619     -1.475035
 -----------------------------------------------------
 -----------------------------------------------------
    Center         ---- Electric Field Gradient ----
                       ( tensor representation )
                   3XX-RR        3YY-RR        3ZZ-RR
 -----------------------------------------------------
    1 Atom        0.134898      0.112825     -0.247724
    2 Atom        0.151729      0.294959     -0.446689
    3 Atom        0.090571     -0.012337     -0.078233
    4 Atom       -0.028786      0.282754     -0.253968
    5 Atom        0.124807      0.110040     -0.234847
    6 Atom        0.255215      0.166234     -0.421449
    7 Atom       -1.460508      1.013822      0.446687
    8 Atom       -0.028762      0.282740     -0.253978
    9 Atom        0.124822      0.110042     -0.234864
   10 Atom       -0.148158      1.255677     -1.107520
   11 Atom        0.090570     -0.012346     -0.078224
   12 Atom        0.151728      0.294964     -0.446692
   13 Atom        0.134902      0.112812     -0.247715
   14 Atom        0.255208      0.166252     -0.421460
   15 Atom       -0.403464     -0.461264      0.864727
   16 Atom       -0.403452     -0.461270      0.864721
   17 Atom       -0.181550      0.025528      0.156022
   18 Atom        0.118907     -0.279360      0.160453
   19 Atom        0.129794     -0.274872      0.145079
   20 Atom        0.118896     -0.279338      0.160442
   21 Atom       -0.181538      0.025529      0.156009
   22 Atom        0.129805     -0.274894      0.145089
   23 Atom        0.119325     -0.307209      0.187884
   24 Atom       -0.210083      0.021840      0.188243
   25 Atom        0.119309     -0.307171      0.187863
   26 Atom       -0.210085      0.021846      0.188239
 -----------------------------------------------------
 -----------------------------------------------------
    Center         ---- Electric Field Gradient ----
                       ( tensor representation )
                   ----       Eigenvalues       ----
 -----------------------------------------------------
    1 Atom       -0.247724      0.053428      0.194296
    2 Atom       -0.446689      0.084435      0.362254
    3 Atom       -0.078233     -0.012610      0.090844
    4 Atom       -0.253968     -0.182110      0.436078
    5 Atom       -0.234847      0.029807      0.205040
    6 Atom       -0.421449      0.155357      0.266092
    7 Atom       -1.460508      0.446687      1.013822
    8 Atom       -0.253978     -0.182089      0.436067
    9 Atom       -0.234864      0.029841      0.205023
   10 Atom       -1.107520     -0.148158      1.255677
   11 Atom       -0.078224     -0.012618      0.090842
   12 Atom       -0.446692      0.084435      0.362257
   13 Atom       -0.247715      0.053416      0.194298
   14 Atom       -0.421460      0.155373      0.266087
   15 Atom       -0.484495     -0.380232      0.864727
   16 Atom       -0.484490     -0.380232      0.864721
   17 Atom       -0.278623      0.122602      0.156022
   18 Atom       -0.279389      0.118936      0.160453
   19 Atom       -0.275128      0.130049      0.145079
   20 Atom       -0.279367      0.118925      0.160442
   21 Atom       -0.278598      0.122589      0.156009
   22 Atom       -0.275149      0.130060      0.145089
   23 Atom       -0.307244      0.119360      0.187884
   24 Atom       -0.306900      0.118657      0.188243
   25 Atom       -0.307207      0.119344      0.187863
   26 Atom       -0.306894      0.118655      0.188239
 -----------------------------------------------------
 Calling FoFJK, ICntrl=      2127 FMM=F ISym2X=0 I1Cent= 0 IOpClX= 0 NMat=1 NMatS=1 NMatT=0.
 ***** Axes restored to original set *****
 -------------------------------------------------------------------
 Center     Atomic                   Forces (Hartrees/Bohr)
 Number     Number              X              Y              Z
 -------------------------------------------------------------------
      1        6          -0.039579761    0.078466579    0.011362909
      2        6           0.021652608   -0.005205796   -0.000884944
      3        6           0.040252509   -0.062559799   -0.009120988
      4        6          -0.110412210   -0.014216741   -0.001236142
      5        6          -0.012547391    0.016248423    0.002384904
      6        6          -0.066405525    0.054164913    0.008115545
      7        8           0.021135295   -0.142331956   -0.020262498
      8        6           0.109839384    0.018089362    0.001779801
      9        6           0.007332736    0.019156068    0.002665194
     10        7          -0.012498285    0.083937166    0.011957356
     11        6          -0.020341776   -0.071452608   -0.009959048
     12        6          -0.019222331   -0.011195187   -0.001450026
     13        6           0.015092724    0.086467131    0.012122106
     14        6           0.047830917    0.070892789    0.009688276
     15        7          -0.104166331   -0.080175073   -0.010610685
     16        7           0.123031059   -0.046868581   -0.007513454
     17        1           0.010320412   -0.005298893   -0.000817969
     18        1          -0.000377065    0.011639224    0.001648492
     19        1           0.006822151   -0.012182953   -0.001769551
     20        1          -0.003022380    0.011258335    0.001617646
     21        1          -0.008349693   -0.008036452   -0.001071888
     22        1          -0.002993913   -0.013613761   -0.001904351
     23        1          -0.010010117    0.031082642    0.004461884
     24        1           0.027892821   -0.016809587   -0.002568261
     25        1           0.000543152    0.032640931    0.004615215
     26        1          -0.021818992   -0.024096176   -0.003249523
 -------------------------------------------------------------------
 Cartesian Forces:  Max     0.142331956 RMS     0.041892291

 GradGradGradGradGradGradGradGradGradGradGradGradGradGradGradGradGradGrad
 Berny optimization.
 FormGI is forming the generalized inverse of G from B-inverse, IUseBI=4.
 Internal  Forces:  Max     0.157259300 RMS     0.035145183
 Search for a local minimum.
 Step number   1 out of a maximum of  146
 All quantities printed in internal units (Hartrees-Bohrs-Radians)
 Mixed Optimization -- RFO/linear search
 Second derivative matrix not updated -- first step.
 ITU=  0
     Eigenvalues ---    0.02830   0.02830   0.02832   0.02832   0.02834
     Eigenvalues ---    0.02834   0.02847   0.02847   0.02852   0.02852
     Eigenvalues ---    0.02885   0.02890   0.02959   0.02971   0.03029
     Eigenvalues ---    0.03032   0.03094   0.03197   0.03444   0.03444
     Eigenvalues ---    0.03444   0.03444   0.03794   0.16000   0.16000
     Eigenvalues ---    0.16000   0.16000   0.16000   0.16000   0.16000
     Eigenvalues ---    0.16000   0.16000   0.16000   0.22421   0.22458
     Eigenvalues ---    0.23510   0.23519   0.24609   0.24629   0.25000
     Eigenvalues ---    0.25000   0.25000   0.25000   0.25000   0.33274
     Eigenvalues ---    0.33276   0.33280   0.33281   0.33312   0.33314
     Eigenvalues ---    0.39970   0.39973   0.39984   0.39985   0.44500
     Eigenvalues ---    0.49680   0.49955   0.49989   0.54241   0.55703
     Eigenvalues ---    0.56287   0.56304   0.56377   0.56381   0.56647
     Eigenvalues ---    0.56649   0.71626   0.75093   0.77086   0.77088
     Eigenvalues ---    0.88434   0.90582
 RFO step:  Lambda=-1.91720826D-01 EMin= 2.82984227D-02
 Linear search not attempted -- first point.
 Maximum step size (   0.300) exceeded in Quadratic search.
    -- Step size scaled by   0.628
 Iteration  1 RMS(Cart)=  0.07107245 RMS(Int)=  0.00012757
 Iteration  2 RMS(Cart)=  0.00019251 RMS(Int)=  0.00002415
 Iteration  3 RMS(Cart)=  0.00000004 RMS(Int)=  0.00002415
 Variable       Old X    -DE/DX   Delta X   Delta X   Delta X     New X
                                 (Linear)    (Quad)   (Total)
    R1        2.53638   0.09595   0.00000   0.07932   0.07931   2.61569
    R2        2.53671   0.02996   0.00000   0.02437   0.02435   2.56106
    R3        2.08504  -0.01157   0.00000  -0.01385  -0.01385   2.07119
    R4        2.53808   0.07683   0.00000   0.06411   0.06412   2.60219
    R5        2.39525   0.10888   0.00000   0.07107   0.07107   2.46633
    R6        2.54127   0.04303   0.00000   0.03636   0.03638   2.57765
    R7        2.08570  -0.01166   0.00000  -0.01397  -0.01397   2.07173
    R8        2.54899   0.09291   0.00000   0.07860   0.07861   2.62759
    R9        2.31829   0.15725   0.00000   0.09056   0.09061   2.40890
   R10        2.54126   0.08254   0.00000   0.06853   0.06852   2.60978
   R11        2.39577   0.10370   0.00000   0.06546   0.06541   2.46118
   R12        2.08563  -0.01329   0.00000  -0.01592  -0.01592   2.06971
   R13        2.31828   0.15726   0.00000   0.09056   0.09062   2.40889
   R14        2.54900   0.09290   0.00000   0.07859   0.07860   2.62761
   R15        2.54127   0.04303   0.00000   0.03636   0.03638   2.57764
   R16        2.39572   0.10373   0.00000   0.06547   0.06542   2.46114
   R17        2.54129   0.08253   0.00000   0.06853   0.06852   2.60980
   R18        2.53809   0.07682   0.00000   0.06410   0.06411   2.60220
   R19        2.08573  -0.01167   0.00000  -0.01398  -0.01398   2.07174
   R20        2.53640   0.09593   0.00000   0.07931   0.07930   2.61570
   R21        2.39526   0.10886   0.00000   0.07107   0.07107   2.46633
   R22        2.53671   0.02995   0.00000   0.02436   0.02434   2.56106
   R23        2.08507  -0.01158   0.00000  -0.01386  -0.01386   2.07120
   R24        2.08561  -0.01328   0.00000  -0.01591  -0.01591   2.06970
   R25        1.98290  -0.03251   0.00000  -0.03454  -0.03454   1.94837
   R26        1.98274  -0.03209   0.00000  -0.03409  -0.03409   1.94865
   R27        1.98294  -0.03252   0.00000  -0.03455  -0.03455   1.94839
   R28        1.98274  -0.03210   0.00000  -0.03409  -0.03409   1.94865
    A1        2.09439   0.00646   0.00000   0.00871   0.00868   2.10306
    A2        2.10474  -0.00445   0.00000  -0.00653  -0.00652   2.09823
    A3        2.08406  -0.00201   0.00000  -0.00218  -0.00216   2.08189
    A4        2.08943  -0.00579   0.00000  -0.00801  -0.00801   2.08142
    A5        2.10025  -0.00016   0.00000  -0.00035  -0.00035   2.09990
    A6        2.09350   0.00595   0.00000   0.00836   0.00836   2.10186
    A7        2.10181  -0.00090   0.00000  -0.00008  -0.00005   2.10176
    A8        2.09563   0.00204   0.00000   0.00287   0.00286   2.09849
    A9        2.08574  -0.00114   0.00000  -0.00279  -0.00281   2.08294
   A10        2.09272   0.00573   0.00000   0.00647   0.00648   2.09920
   A11        2.10950   0.00395   0.00000   0.00261   0.00257   2.11206
   A12        2.08097  -0.00968   0.00000  -0.00908  -0.00904   2.07193
   A13        2.08364  -0.00771   0.00000  -0.00898  -0.00896   2.07468
   A14        2.10212   0.00092   0.00000  -0.00329  -0.00334   2.09878
   A15        2.09743   0.00680   0.00000   0.01227   0.01230   2.10973
   A16        2.10438   0.00222   0.00000   0.00190   0.00187   2.10625
   A17        2.07924   0.00372   0.00000   0.00768   0.00770   2.08693
   A18        2.09957  -0.00594   0.00000  -0.00958  -0.00957   2.09001
   A19        2.13858  -0.00584   0.00000   0.00590   0.00605   2.14464
   A20        2.08093  -0.00967   0.00000  -0.00907  -0.00903   2.07191
   A21        2.10953   0.00394   0.00000   0.00260   0.00255   2.11208
   A22        2.09272   0.00573   0.00000   0.00647   0.00647   2.09920
   A23        2.10216   0.00090   0.00000  -0.00331  -0.00335   2.09881
   A24        2.08363  -0.00771   0.00000  -0.00898  -0.00896   2.07467
   A25        2.09740   0.00681   0.00000   0.01229   0.01231   2.10971
   A26        2.06161   0.02336   0.00000   0.01885   0.01870   2.08031
   A27        2.10183  -0.00091   0.00000  -0.00009  -0.00006   2.10178
   A28        2.08572  -0.00113   0.00000  -0.00279  -0.00280   2.08292
   A29        2.09564   0.00204   0.00000   0.00287   0.00286   2.09849
   A30        2.08941  -0.00578   0.00000  -0.00800  -0.00800   2.08141
   A31        2.09349   0.00596   0.00000   0.00836   0.00836   2.10186
   A32        2.10028  -0.00017   0.00000  -0.00036  -0.00036   2.09992
   A33        2.09440   0.00646   0.00000   0.00870   0.00867   2.10307
   A34        2.10470  -0.00444   0.00000  -0.00652  -0.00650   2.09819
   A35        2.08409  -0.00201   0.00000  -0.00218  -0.00217   2.08192
   A36        2.10438   0.00222   0.00000   0.00190   0.00187   2.10625
   A37        2.09960  -0.00594   0.00000  -0.00959  -0.00957   2.09003
   A38        2.07920   0.00373   0.00000   0.00769   0.00770   2.08691
   A39        2.11258   0.00315   0.00000   0.00563   0.00563   2.11821
   A40        2.09682   0.00446   0.00000   0.00798   0.00798   2.10479
   A41        2.07379  -0.00761   0.00000  -0.01360  -0.01360   2.06018
   A42        2.11258   0.00315   0.00000   0.00563   0.00563   2.11821
   A43        2.09683   0.00446   0.00000   0.00797   0.00797   2.10480
   A44        2.07378  -0.00761   0.00000  -0.01360  -0.01360   2.06018
    D1        0.00000   0.00000   0.00000   0.00000   0.00000   0.00000
    D2       -3.14157   0.00000   0.00000   0.00000   0.00000  -3.14158
    D3        3.14156   0.00000   0.00000   0.00000   0.00000   3.14156
    D4       -0.00002   0.00000   0.00000   0.00000   0.00000  -0.00002
    D5        0.00004   0.00000   0.00000   0.00000   0.00000   0.00003
    D6       -3.14158   0.00000   0.00000   0.00000   0.00000  -3.14158
    D7       -3.14152   0.00000   0.00000  -0.00001  -0.00001  -3.14153
    D8        0.00004   0.00000   0.00000   0.00000   0.00000   0.00004
    D9       -0.00004   0.00000   0.00000   0.00000   0.00000  -0.00004
   D10       -3.14157   0.00000   0.00000   0.00000   0.00000  -3.14157
   D11        3.14153   0.00000   0.00000   0.00000   0.00000   3.14154
   D12        0.00000   0.00000   0.00000   0.00000   0.00000   0.00000
   D13       -3.14159   0.00000   0.00000   0.00000   0.00000  -3.14158
   D14        0.00000   0.00000   0.00000   0.00000   0.00000   0.00000
   D15        0.00003   0.00000   0.00000   0.00000   0.00000   0.00003
   D16       -3.14158   0.00000   0.00000   0.00000   0.00000  -3.14158
   D17        0.00005   0.00000   0.00000   0.00000   0.00000   0.00004
   D18       -3.14153   0.00000   0.00000   0.00000   0.00000  -3.14153
   D19        3.14157   0.00000   0.00000   0.00000   0.00000   3.14158
   D20        0.00000   0.00000   0.00000   0.00000   0.00000   0.00000
   D21       -0.00001   0.00000   0.00000   0.00000   0.00000  -0.00001
   D22        3.14157   0.00000   0.00000   0.00000   0.00000   3.14156
   D23        3.14157   0.00000   0.00000   0.00000   0.00000   3.14157
   D24       -0.00004   0.00000   0.00000   0.00000   0.00000  -0.00004
   D25        3.14154   0.00000   0.00000   0.00000   0.00000   3.14154
   D26       -0.00004   0.00000   0.00000   0.00000   0.00000  -0.00004
   D27       -0.00003   0.00000   0.00000   0.00000   0.00000  -0.00003
   D28        3.14159   0.00000   0.00000   0.00000   0.00000   3.14159
   D29        3.14158   0.00000   0.00000   0.00000   0.00000   3.14158
   D30        0.00001   0.00000   0.00000   0.00000   0.00000   0.00001
   D31        0.00004   0.00000   0.00000   0.00000   0.00000   0.00004
   D32       -3.14157   0.00000   0.00000   0.00000   0.00000  -3.14157
   D33        0.00012   0.00000   0.00000   0.00000   0.00000   0.00012
   D34       -3.14140   0.00000   0.00000  -0.00001  -0.00001  -3.14141
   D35       -0.00013   0.00000   0.00000   0.00000   0.00000  -0.00012
   D36        3.14150   0.00000   0.00000   0.00000   0.00000   3.14151
   D37        3.14140   0.00000   0.00000   0.00001   0.00001   3.14141
   D38       -0.00016   0.00000   0.00000   0.00001   0.00001  -0.00015
   D39       -3.14155   0.00000   0.00000   0.00000   0.00000  -3.14155
   D40        0.00008   0.00000   0.00000   0.00000   0.00000   0.00008
   D41        0.00012   0.00000   0.00000  -0.00001  -0.00001   0.00011
   D42       -3.14144   0.00000   0.00000  -0.00001  -0.00001  -3.14145
   D43        0.00004   0.00000   0.00000   0.00000   0.00000   0.00004
   D44       -3.14159   0.00000   0.00000   0.00000   0.00000  -3.14159
   D45        0.00010   0.00000   0.00000  -0.00001  -0.00001   0.00009
   D46       -3.14157   0.00000   0.00000   0.00000   0.00000  -3.14157
   D47       -3.14146   0.00000   0.00000  -0.00001  -0.00001  -3.14147
   D48        0.00006   0.00000   0.00000   0.00000   0.00000   0.00006
   D49       -0.00001   0.00000   0.00000   0.00000   0.00000  -0.00001
   D50       -3.14152   0.00000   0.00000  -0.00001  -0.00001  -3.14153
   D51        3.14154   0.00000   0.00000   0.00000   0.00000   3.14155
   D52        0.00003   0.00000   0.00000   0.00000   0.00000   0.00003
   D53       -0.00005   0.00000   0.00000   0.00000   0.00000  -0.00005
   D54       -3.14150   0.00000   0.00000  -0.00001  -0.00001  -3.14151
   D55        3.14146   0.00000   0.00000   0.00001   0.00001   3.14147
   D56        0.00002   0.00000   0.00000   0.00000   0.00000   0.00002
   D57       -0.00003   0.00000   0.00000   0.00000   0.00000  -0.00003
   D58        3.14147   0.00000   0.00000   0.00001   0.00001   3.14148
   D59       -3.14154   0.00000   0.00000   0.00000   0.00000  -3.14155
   D60       -0.00005   0.00000   0.00000   0.00000   0.00000  -0.00005
   D61        0.00001   0.00000   0.00000   0.00000   0.00000   0.00001
   D62       -3.14151   0.00000   0.00000  -0.00001  -0.00001  -3.14152
   D63        3.14145   0.00000   0.00000   0.00001   0.00001   3.14146
   D64       -0.00007   0.00000   0.00000   0.00001   0.00001  -0.00006
         Item               Value     Threshold  Converged?
 Maximum Force            0.157259     0.000450     NO 
 RMS     Force            0.035145     0.000300     NO 
 Maximum Displacement     0.265991     0.001800     NO 
 RMS     Displacement     0.071122     0.001200     NO 
 Predicted change in Energy=-9.124604D-02
 GradGradGradGradGradGradGradGradGradGradGradGradGradGradGradGradGradGrad

                          Input orientation:                          
 ---------------------------------------------------------------------
 Center     Atomic      Atomic             Coordinates (Angstroms)
 Number     Number       Type             X           Y           Z
 ---------------------------------------------------------------------
      1          6           0       -3.683826    0.296356    0.059011
      2          6           0       -3.479907   -1.059034   -0.133969
      3          6           0       -2.192531   -1.541635   -0.211104
      4          6           0       -1.129412   -0.694434   -0.098782
      5          6           0       -1.335364    0.666960    0.095067
      6          6           0       -2.630156    1.141295    0.171126
      7          8           0        0.066933   -1.128998   -0.168564
      8          6           0        1.085934   -0.369693   -0.068417
      9          6           0        0.887253    0.992761    0.125627
     10          7           0       -0.319942    1.475455    0.202282
     11          6           0        2.350075   -0.875693   -0.148984
     12          6           0        3.442266   -0.044280   -0.039106
     13          6           0        3.243384    1.311824    0.154163
     14          6           0        1.988947    1.818397    0.234672
     15          7           0       -4.497195   -1.869536   -0.241488
     16          7           0        4.651853   -0.528325   -0.116249
     17          1           0       -4.701819    0.697481    0.122732
     18          1           0       -2.012540   -2.612251   -0.363690
     19          1           0       -2.808964    2.211038    0.323568
     20          1           0        2.489039   -1.952304   -0.302329
     21          1           0        4.101379    1.987936    0.243647
     22          1           0        1.849117    2.893831    0.387744
     23          1           0       -4.363993   -2.881738   -0.385466
     24          1           0       -5.462312   -1.510941   -0.184127
     25          1           0        4.818627   -1.535586   -0.259979
     26          1           0        5.471581    0.091905   -0.034422
 ---------------------------------------------------------------------
                    Distance matrix (angstroms):
                    1          2          3          4          5
[...]
     1  C   -0.165756  -0.002718   0.001283  -0.006562   0.003747  -0.009515
     2  C    0.038922  -0.009890  -0.000291  -0.000779  -0.048393  -0.027264
     3  C    0.072144   0.022653  -0.002728   0.013170   0.022366   0.005891
     4  C   -0.036648   0.019794  -0.006645  -0.010773  -0.000388  -0.002627
     5  C   -0.017894  -0.024577  -0.001411   0.003280   0.008287   0.005269
     6  C    0.419982   0.013846  -0.003273   0.027906  -0.005530   0.016432
     7  O   -0.004660  -0.027258   0.002807  -0.004660   0.000164  -0.000347
     8  C   -0.010773   0.051943   0.031054  -0.036647  -0.004292  -0.000288
     9  C    0.003280  -0.058493   0.025633  -0.017894   0.001352  -0.001672
    10  N   -0.013225  -0.001459  -0.000362  -0.013225   0.000063   0.000001
    11  C    0.013170   0.555338  -0.118378   0.072144   0.000205  -0.000038
    12  C   -0.000779  -0.179724  -0.136003   0.038921  -0.000182   0.000093
    13  C   -0.006562  -0.105759   0.646539  -0.165756  -0.000117   0.000063
    14  C    0.027906   0.039442  -0.119303   0.419982   0.000446  -0.000261
    15  N   -0.002610   0.000071  -0.000001   0.000007   0.375673   0.370002
    16  N    0.000007  -0.003759  -0.008966  -0.002610   0.000002   0.000000
    17  H   -0.021483   0.000043   0.000018  -0.000125   0.002941  -0.003923
    18  H    0.003073   0.000284   0.000043   0.000004  -0.004007   0.002254
    19  H    0.468838   0.000004  -0.000125   0.001232  -0.000430   0.000873
    20  H    0.000004   0.514417  -0.004101   0.003073   0.000102  -0.000051
    21  H   -0.000125  -0.004101   0.513021  -0.021483  -0.000003   0.000000
    22  H    0.001232   0.003073  -0.021483   0.468838   0.000017  -0.000017
    23  H   -0.000430   0.000102  -0.000003   0.000017   0.367280  -0.016393
    24  H    0.000873  -0.000051   0.000000  -0.000017  -0.016393   0.366437
    25  H    0.000017  -0.004007   0.002941  -0.000430  -0.000001   0.000000
    26  H   -0.000017   0.002254  -0.003923   0.000873   0.000000   0.000000
              25         26
     1  C   -0.000117   0.000063
     2  C   -0.000182   0.000093
     3  C    0.000205  -0.000038
     4  C   -0.004292  -0.000288
     5  C    0.001352  -0.001672
     6  C    0.000446  -0.000261
     7  O    0.000164  -0.000347
     8  C   -0.000388  -0.002627
     9  C    0.008287   0.005269
    10  N    0.000063   0.000001
    11  C    0.022367   0.005891
    12  C   -0.048393  -0.027263
    13  C    0.003746  -0.009516
    14  C   -0.005530   0.016432
    15  N    0.000002   0.000000
    16  N    0.375673   0.370002
    17  H   -0.000003   0.000000
    18  H    0.000102  -0.000051
    19  H    0.000017  -0.000017
    20  H   -0.004007   0.002254
    21  H    0.002941  -0.003923
    22  H   -0.000430   0.000873
    23  H   -0.000001   0.000000
    24  H    0.000000   0.000000
    25  H    0.367280  -0.016393
    26  H   -0.016393   0.366437
 Mulliken charges:
               1
     1  C    0.303981
     2  C   -0.421407
     3  C   -0.512948
     4  C    0.698676
     5  C   -0.097062
     6  C   -0.467335
     7  O   -0.058239
     8  C    0.698676
     9  C   -0.097060
    10  N    0.169747
    11  C   -0.512950
    12  C   -0.421405
    13  C    0.303982
    14  C   -0.467336
    15  N   -0.285535
    16  N   -0.285535
    17  H    0.203657
    18  H    0.198535
    19  H    0.231514
    20  H    0.198534
    21  H    0.203657
    22  H    0.231514
    23  H    0.297089
    24  H    0.295080
    25  H    0.297089
    26  H    0.295080
 Sum of Mulliken charges =   1.00000
 Mulliken charges with hydrogens summed into heavy atoms:
               1
     1  C    0.507638
     2  C   -0.421407
     3  C   -0.314413
     4  C    0.698676
     5  C   -0.097062
     6  C   -0.235820
     7  O   -0.058239
     8  C    0.698676
     9  C   -0.097060
    10  N    0.169747
    11  C   -0.314416
    12  C   -0.421405
    13  C    0.507639
    14  C   -0.235822
    15  N    0.306634
    16  N    0.306634
 Electronic spatial extent (au):  <R**2>=           4132.7806
 Charge=              1.0000 electrons
 Dipole moment (field-independent basis, Debye):
    X=              0.0000    Y=             -2.9733    Z=              0.0001  Tot=              2.9733
 Quadrupole moment (field-independent basis, Debye-Ang):
   XX=             10.9045   YY=            -71.5745   ZZ=            -95.3860
   XY=              0.0000   XZ=             -0.0002   YZ=              0.0000
 Traceless Quadrupole moment (field-independent basis, Debye-Ang):
   XX=             62.9232   YY=            -19.5559   ZZ=            -43.3673
   XY=              0.0000   XZ=             -0.0002   YZ=              0.0000
 Octapole moment (field-independent basis, Debye-Ang**2):
  XXX=             -0.0002  YYY=            -31.8415  ZZZ=              0.0000  XYY=              0.0000
  XXY=            -73.1536  XXZ=              0.0018  XZZ=              0.0000  YZZ=             -2.7058
  YYZ=              0.0001  XYZ=              0.0004
 Hexadecapole moment (field-independent basis, Debye-Ang**3):
 XXXX=          -1752.4747 YYYY=           -714.9552 ZZZZ=           -102.3803 XXXY=              0.0002
 XXXZ=             -0.0070 YYYX=              0.0000 YYYZ=             -0.0001 ZZZX=             -0.0002
 ZZZY=              0.0000 XXYY=           -573.3193 XXZZ=           -863.5025 YYZZ=           -171.8151
 XXYZ=             -0.0014 YYXZ=             -0.0006 ZZXY=              0.0000
 N-N= 1.006261592065D+03 E-N=-3.632647006425D+03  KE= 6.998650602645D+02

 **********************************************************************

            Electrostatic Properties Using The SCF Density

 **********************************************************************

       Atomic Center    1 is at   3.570089  0.936870  0.000005
       Atomic Center    2 is at   3.570984 -0.497730  0.000003
       Atomic Center    3 is at   2.347539 -1.200306 -0.000002
       Atomic Center    4 is at   1.175032 -0.484707 -0.000004
       Atomic Center    5 is at   1.146089  0.948529 -0.000002
       Atomic Center    6 is at   2.398715  1.631062  0.000002
       Atomic Center    7 is at   0.000000 -1.164066 -0.000011
       Atomic Center    8 is at  -1.175031 -0.484708 -0.000005
       Atomic Center    9 is at  -1.146089  0.948529 -0.000004
       Atomic Center   10 is at   0.000000  1.631231 -0.000003
       Atomic Center   11 is at  -2.347539 -1.200306 -0.000002
       Atomic Center   12 is at  -3.570984 -0.497730  0.000003
       Atomic Center   13 is at  -3.570089  0.936870  0.000002
       Atomic Center   14 is at  -2.398715  1.631062 -0.000001
       Atomic Center   15 is at   4.744269 -1.159366  0.000006
       Atomic Center   16 is at  -4.744269 -1.159366  0.000006
       Atomic Center   17 is at   4.519025  1.460498  0.000008
       Atomic Center   18 is at   2.320575 -2.283066 -0.000003
       Atomic Center   19 is at   2.379798  2.713934  0.000005
       Atomic Center   20 is at  -2.320575 -2.283066 -0.000003
       Atomic Center   21 is at  -4.519025  1.460498  0.000004
       Atomic Center   22 is at  -2.379797  2.713934 -0.000001
       Atomic Center   23 is at   4.782353 -2.166610  0.000002
       Atomic Center   24 is at   5.622335 -0.664547  0.000008
       Atomic Center   25 is at  -4.782353 -2.166610  0.000015
       Atomic Center   26 is at  -5.622335 -0.664547  0.000022
 -----------------------------------------------------------------

              Electrostatic Properties (Atomic Units)

 -----------------------------------------------------------------
    Center     Electric         -------- Electric Field --------
               Potential          X             Y             Z
 -----------------------------------------------------------------
    1 Atom    -14.628384      0.001570      0.001888      0.000000
    2 Atom    -14.560473     -0.007241      0.005345      0.000000
    3 Atom    -14.628936      0.001178     -0.003638      0.000000
    4 Atom    -14.545178      0.013303      0.008298      0.000000
    5 Atom    -14.587936      0.006405     -0.000882      0.000000
    6 Atom    -14.625642     -0.000115      0.003084      0.000000
    7 Atom    -22.143335      0.000000     -0.047785      0.000000
    8 Atom    -14.545178     -0.013303      0.008298      0.000000
    9 Atom    -14.587935     -0.006405     -0.000882      0.000000
   10 Atom    -18.242907      0.000000      0.045084      0.000000
   11 Atom    -14.628936     -0.001178     -0.003638      0.000000
   12 Atom    -14.560473      0.007241      0.005345      0.000000
   13 Atom    -14.628384     -0.001570      0.001888      0.000000
   14 Atom    -14.625642      0.000115      0.003084      0.000000
   15 Atom    -18.221378      0.003328     -0.001857      0.000000
   16 Atom    -18.221378     -0.003328     -0.001857     -0.000001
   17 Atom     -0.962668      0.016687      0.009674      0.000000
   18 Atom     -0.952160     -0.000686     -0.019457      0.000000
   19 Atom     -0.967191     -0.000268      0.019688      0.000000
   20 Atom     -0.952160      0.000686     -0.019457      0.000000
   21 Atom     -0.962668     -0.016687      0.009674      0.000000
   22 Atom     -0.967191      0.000268      0.019688      0.000000
   23 Atom     -0.873640      0.001173     -0.022874      0.000000
   24 Atom     -0.873779      0.020138      0.010951      0.000000
   25 Atom     -0.873640     -0.001173     -0.022874      0.000000
   26 Atom     -0.873779     -0.020138      0.010951      0.000000
 -----------------------------------------------------------------
 -----------------------------------------------------
    Center         ---- Electric Field Gradient ----
                     XX            YY            ZZ
 -----------------------------------------------------
    1 Atom     -500.631717   -500.778128   -501.043502
    2 Atom     -500.847391   -500.697336   -501.361734
    3 Atom     -500.575976   -500.542214   -500.702857
    4 Atom     -501.049574   -500.747486   -501.168763
    5 Atom     -500.605722   -500.657288   -500.883475
    6 Atom     -500.908318   -500.884809   -501.488896
    7 Atom    -1238.265490  -1235.911172  -1235.711475
    8 Atom     -501.049570   -500.747485   -501.168764
    9 Atom     -500.605723   -500.657289   -500.883477
   10 Atom     -815.072380   -813.612418   -815.799242
   11 Atom     -500.575976   -500.542214   -500.702856
   12 Atom     -500.847391   -500.697337   -501.361736
   13 Atom     -500.631717   -500.778129   -501.043503
   14 Atom     -500.908319   -500.884809   -501.488896
   15 Atom     -812.141091   -812.072858   -810.799313
   16 Atom     -812.141092   -812.072859   -810.799315
   17 Atom       -2.031946     -1.783811     -1.648939
   18 Atom       -1.665642     -2.119723     -1.629032
   19 Atom       -1.661553     -2.120282     -1.646339
   20 Atom       -1.665642     -2.119722     -1.629032
   21 Atom       -2.031946     -1.783811     -1.648938
   22 Atom       -1.661553     -2.120282     -1.646339
   23 Atom       -1.608059     -2.177429     -1.530442
   24 Atom       -2.036665     -1.746793     -1.529017
   25 Atom       -1.608058     -2.177428     -1.530441
   26 Atom       -2.036665     -1.746793     -1.529016
 -----------------------------------------------------
 -----------------------------------------------------
    Center         ---- Electric Field Gradient ----
                     XY            XZ            YZ
 -----------------------------------------------------
    1 Atom       -0.032268      0.000001      0.000000
    2 Atom        0.125897      0.000002      0.000001
    3 Atom       -0.011261      0.000000      0.000000
    4 Atom       -0.311873     -0.000001      0.000000
    5 Atom        0.084204      0.000001      0.000001
    6 Atom       -0.060200      0.000002      0.000001
    7 Atom       -0.000001     -0.000001     -0.000011
    8 Atom        0.311872      0.000001      0.000000
    9 Atom       -0.084203      0.000000      0.000001
   10 Atom        0.000000      0.000001      0.000001
   11 Atom        0.011261     -0.000001      0.000000
   12 Atom       -0.125897     -0.000004      0.000000
   13 Atom        0.032268     -0.000001      0.000000
   14 Atom        0.060200     -0.000002      0.000000
   15 Atom        0.057362     -0.000003     -0.000003
   16 Atom       -0.057362      0.000015      0.000002
   17 Atom       -0.189391     -0.000001     -0.000001
   18 Atom       -0.007311      0.000000     -0.000001
   19 Atom        0.005584      0.000000     -0.000001
   20 Atom        0.007311      0.000000     -0.000001
   21 Atom        0.189391      0.000001      0.000000
   22 Atom       -0.005584      0.000000      0.000000
   23 Atom        0.018295      0.000000     -0.000002
   24 Atom       -0.245171     -0.000001     -0.000001
   25 Atom       -0.018295      0.000001      0.000005
   26 Atom        0.245171      0.000009     -0.000004
 -----------------------------------------------------
 -----------------------------------------------------
    Center         ---- Electric Field Gradient ----
                   ----       Eigenvalues       ----
 -----------------------------------------------------
    1 Atom     -501.043502   -500.784924   -500.624921
    2 Atom     -501.361734   -500.918921   -500.625806
    3 Atom     -500.702857   -500.579388   -500.538803
    4 Atom     -501.245054   -501.168763   -500.552006
    5 Atom     -500.883475   -500.719568   -500.543443
    6 Atom     -501.488896   -500.957900   -500.835227
    7 Atom    -1238.265490  -1235.911172  -1235.711475
    8 Atom     -501.245051   -501.168764   -500.552005
    9 Atom     -500.883477   -500.719568   -500.543444
   10 Atom     -815.799242   -815.072380   -813.612418
   11 Atom     -500.702856   -500.579387   -500.538802
   12 Atom     -501.361736   -500.918922   -500.625806
   13 Atom     -501.043503   -500.784925   -500.624921
   14 Atom     -501.488896   -500.957901   -500.835227
   15 Atom     -812.173716   -812.040234   -810.799313
   16 Atom     -812.173716   -812.040235   -810.799315
   17 Atom       -2.134289     -1.681468     -1.648939
   18 Atom       -2.119840     -1.665524     -1.629032
   19 Atom       -2.120350     -1.661485     -1.646339
   20 Atom       -2.119840     -1.665524     -1.629032
   21 Atom       -2.134289     -1.681468     -1.648938
   22 Atom       -2.120350     -1.661485     -1.646339
   23 Atom       -2.178016     -1.607471     -1.530442
   24 Atom       -2.176536     -1.606921     -1.529017
   25 Atom       -2.178015     -1.607471     -1.530441
   26 Atom       -2.176536     -1.606921     -1.529016
 -----------------------------------------------------
 -----------------------------------------------------
    Center         ---- Electric Field Gradient ----
                       ( tensor representation )
                   3XX-RR        3YY-RR        3ZZ-RR
 -----------------------------------------------------
    1 Atom        0.186065      0.039655     -0.225720
    2 Atom        0.121430      0.271484     -0.392914
    3 Atom        0.031039      0.064802     -0.095841
    4 Atom       -0.060966      0.241121     -0.180155
    5 Atom        0.109773      0.058207     -0.167980
    6 Atom        0.185690      0.209199     -0.394888
    7 Atom       -1.636111      0.718207      0.917904
    8 Atom       -0.060964      0.241121     -0.180157
    9 Atom        0.109773      0.058207     -0.167981
   10 Atom       -0.244367      1.215595     -0.971229
   11 Atom        0.031039      0.064801     -0.095841
   12 Atom        0.121430      0.271484     -0.392914
   13 Atom        0.186066      0.039654     -0.225720
   14 Atom        0.185689      0.209199     -0.394888
   15 Atom       -0.470004     -0.401771      0.871774
   16 Atom       -0.470003     -0.401770      0.871774
   17 Atom       -0.210381      0.037754      0.172627
   18 Atom        0.139157     -0.314924      0.175767
   19 Atom        0.147838     -0.310891      0.163052
   20 Atom        0.139157     -0.314924      0.175767
   21 Atom       -0.210381      0.037754      0.172627
   22 Atom        0.147838     -0.310891      0.163052
   23 Atom        0.163918     -0.405453      0.241535
   24 Atom       -0.265840      0.024032      0.241808
   25 Atom        0.163918     -0.405452      0.241534
   26 Atom       -0.265840      0.024032      0.241808
 -----------------------------------------------------
 -----------------------------------------------------
    Center         ---- Electric Field Gradient ----
                       ( tensor representation )
                   ----       Eigenvalues       ----
 -----------------------------------------------------
    1 Atom       -0.225720      0.032858      0.192862
    2 Atom       -0.392914      0.049899      0.343015
    3 Atom       -0.095841      0.027628      0.068213
    4 Atom       -0.256447     -0.180155      0.436602
    5 Atom       -0.167980     -0.004072      0.172053
    6 Atom       -0.394888      0.136107      0.258781
    7 Atom       -1.636111      0.718207      0.917904
    8 Atom       -0.256444     -0.180157      0.436601
    9 Atom       -0.167981     -0.004072      0.172052
   10 Atom       -0.971229     -0.244367      1.215595
   11 Atom       -0.095841      0.027628      0.068213
   12 Atom       -0.392914      0.049900      0.343015
   13 Atom       -0.225720      0.032858      0.192862
   14 Atom       -0.394888      0.136107      0.258781
   15 Atom       -0.502628     -0.369146      0.871774
   16 Atom       -0.502628     -0.369146      0.871774
   17 Atom       -0.312724      0.140097      0.172627
   18 Atom       -0.315042      0.139275      0.175767
   19 Atom       -0.310958      0.147906      0.163052
   20 Atom       -0.315041      0.139275      0.175767
   21 Atom       -0.312724      0.140097      0.172627
   22 Atom       -0.310959      0.147906      0.163052
   23 Atom       -0.406040      0.164505      0.241535
   24 Atom       -0.405712      0.163904      0.241808
   25 Atom       -0.406039      0.164505      0.241534
   26 Atom       -0.405712      0.163904      0.241808
 -----------------------------------------------------

 Test job not archived.
 1|1|UNPC-NP-ALMACH|FOpt|RB3LYP|6-311++G(d,p)|C12H10N3O1(1+)|HERA|06-Au
 g-2018|0||# RB3LYP/6-311++G** Opt Test prop=EFG||C12N3H10O||1,1|C,-3.7
 577975373,0.3238130686,0.0635340355|C,-3.5499535371,-1.0814634247,-0.1
 366527483|C,-2.237335265,-1.5921797165,-0.2180973097|C,-1.1814509739,-
 0.7212233458,-0.102349361|C,-1.3613471835,0.6867855373,0.0980269215|C,
 -2.6999193808,1.1736382034,0.1762796912|O,0.0798929833,-1.216220213,-0
 .1812074193|C,1.143547508,-0.3803935831,-0.0704909148|C,0.9063831857,1
 .0192205665,0.1291022934|N,-0.3268123308,1.5216890939,0.2088259247|C,2
 .4076661852,-0.9112508166,-0.1544501702|C,3.5158397304,-0.0456612253,-
 0.0398355431|C,3.3062261501,1.3593556779,0.1603296116|C,2.0463434218,1
 .8694109093,0.2413178021|N,-4.6144593409,-1.8996780146,-0.244882434|N,
 4.7728766072,-0.5235514504,-0.1162551648|H,-4.7727978062,0.6990668781,
 0.1237310829|H,-2.0531218162,-2.6487995328,-0.3688126107|H,-2.83875732
 96,2.2370225861,0.327631887|H,2.5385278331,-1.9756916874,-0.3058970316
 |H,4.1688548779,2.0098579195,0.2462556319|H,1.8700734981,2.9273076324,
 0.3921593778|H,-4.5055870422,-2.8917666583,-0.3859404272|H,-5.55515464
 58,-1.5423638845,-0.187743179|H,4.9571050656,-1.5045918134,-0.25629297
 07|H,5.569583143,0.0884572934,-0.0353229753||Version=EM64W-G09RevD.01|
 State=1-A|HF=-702.7520083|RMSD=2.719e-009|RMSF=1.532e-004|Dipole=0.170
 2039,-1.145777,-0.1632475|Quadrupole=45.4799066,-13.5965629,-31.883343
 8,8.8158444,0.7002671,2.5748758|PG=C01 [X(C12H10N3O1)]||@


 JUST WHEN YOU THINK YOU'VE GOT THE WORLD ON A STRING,
 YOU FIND OUT IT'S YOUR LEASH.
 Job cpu time:       0 days  0 hours 17 minutes  4.0 seconds.
 File lengths (MBytes):  RWF=     80 Int=      0 D2E=      0 Chk=     13 Scr=      1
 Normal termination of Gaussian 09 at Mon Aug 06 18:14:26 2018.
