 Entering Link 1 = C:\G09W\l1.exe PID=     27156.
  
 Copyright (c) 1988,1990,1992,1993,1995,1998,2003,2009,2013,
            Gaussian, Inc.  All Rights Reserved.
  
 This is part of the Gaussian(R) 09 program.  It is based on
 the Gaussian(R) 03 system (copyright 2003, Gaussian, Inc.),
 the Gaussian(R) 98 system (copyright 1998, Gaussian, Inc.),
 the Gaussian(R) 94 system (copyright 1995, Gaussian, Inc.),
 the Gaussian 92(TM) system (copyright 1992, Gaussian, Inc.),
 the Gaussian 90(TM) system (copyright 1990, Gaussian, Inc.),
 the Gaussian 88(TM) system (copyright 1988, Gaussian, Inc.),
 the Gaussian 86(TM) system (copyright 1986, Carnegie Mellon
 University), and the Gaussian 82(TM) system (copyright 1983,
 Carnegie Mellon University). Gaussian is a federally registered
 trademark of Gaussian, Inc.
  
 This software contains proprietary and confidential information,
 including trade secrets, belonging to Gaussian, Inc.
  
 This software is provided under written license and may be
 used, copied, transmitted, or stored only in accord with that
 written license.
  
 The following legend is applicable only to US Government
 contracts under FAR:
  
                    RESTRICTED RIGHTS LEGEND
  
 Use, reproduction and disclosure by the US Government is
 subject to restrictions as set forth in subparagraphs (a)
 and (c) of the Commercial Computer Software - Restricted
 Rights clause in FAR 52.227-19.
  
 Gaussian, Inc.
 340 Quinnipiac St., Bldg. 40, Wallingford CT 06492
  
  
 ---------------------------------------------------------------
 Warning -- This program may not be used in any manner that
 competes with the business of Gaussian, Inc. or will provide
 assistance to any competitor of Gaussian, Inc.  The licensee
 of this program is prohibited from giving any competitor of
 Gaussian, Inc. access to this program.  By using this program,
 the user acknowledges that Gaussian, Inc. is engaged in the
 business of creating and licensing software in the field of
 computational chemistry and represents and warrants to the
 licensee that it is not a competitor of Gaussian, Inc. and that
 it will not use this program in any manner prohibited above.
 ---------------------------------------------------------------
  

 Cite this work as:
 Gaussian 09, Revision D.01,
 M. J. Frisch, G. W. Trucks, H. B. Schlegel, G. E. Scuseria, 
 M. A. Robb, J. R. Cheeseman, G. Scalmani, V. Barone, B. Mennucci, 
 G. A. Petersson, H. Nakatsuji, M. Caricato, X. Li, H. P. Hratchian, 
 A. F. Izmaylov, J. Bloino, G. Zheng, J. L. Sonnenberg, M. Hada, 
 M. Ehara, K. Toyota, R. Fukuda, J. Hasegawa, M. Ishida, T. Nakajima, 
 Y. Honda, O. Kitao, H. Nakai, T. Vreven, J. A. Montgomery, Jr., 
 J. E. Peralta, F. Ogliaro, M. Bearpark, J. J. Heyd, E. Brothers, 
 K. N. Kudin, V. N. Staroverov, T. Keith, R. Kobayashi, J. Normand, 
 K. Raghavachari, A. Rendell, J. C. Burant, S. S. Iyengar, J. Tomasi, 
 M. Cossi, N. Rega, J. M. Millam, M. Klene, J. E. Knox, J. B. Cross, 
 V. Bakken, C. Adamo, J. Jaramillo, R. Gomperts, R. E. Stratmann, 
 O. Yazyev, A. J. Austin, R. Cammi, C. Pomelli, J. W. Ochterski, 
 R. L. Martin, K. Morokuma, V. G. Zakrzewski, G. A. Voth, 
 P. Salvador, J. J. Dannenberg, S. Dapprich, A. D. Daniels, 
 O. Farkas, J. B. Foresman, J. V. Ortiz, J. Cioslowski, 
 and D. J. Fox, Gaussian, Inc., Wallingford CT, 2013.
 
 ******************************************
 Gaussian 09:  EM64W-G09RevD.01 13-Apr-2013
                07-Aug-2018 
 ******************************************
 %Chk=Anth_281.chk
 %Mem=64GB
 %NProcShared=20
 Will use up to   20 processors via shared memory.
 -------------------------------------
 # RB3LYP/6-311++G** Opt Test prop=EFG
 -------------------------------------
 1/14=-1,18=20,19=15,26=3,38=1/1,3;
 2/9=110,12=2,17=6,18=5,40=1/2;
 3/5=4,6=6,7=1111,11=2,16=1,25=1,30=1,71=1,74=-5,116=1/1,2,3;
 4//1;
 5/5=2,38=5/2;
 6/7=2,8=2,9=2,10=2,14=1,28=1/1,2;
 7//1,2,3,16;
 1/14=-1,18=20,19=15,26=3/3(2);
 2/9=110/2;
 99//99;
 2/9=110/2;
 3/5=4,6=6,7=1111,11=2,16=1,25=1,30=1,71=1,74=-5,116=1/1,2,3;
 4/5=5,16=3,69=1/1;
 5/5=2,38=5/2;
 7//1,2,3,16;
 1/14=-1,18=20,19=15,26=3/3(-5);
 2/9=110/2;
 6/7=2,8=2,9=2,10=2,14=1,19=2,28=1/1,2;
 99/9=1/99;
 ---------
 C13N2H11O
 ---------
 Symbolic Z-matrix:
 Charge =  1 Multiplicity = 1
 C                    -3.55804  -0.97873  -0.37911 
 C                    -2.73942  -2.03406  -0.24839 
 C                    -1.41886  -1.83835  -0.10123 
 C                    -0.90738  -0.59396  -0.08376 
 C                    -1.73261   0.46241  -0.21561 
 C                    -3.05452   0.26539  -0.36249 
 O                     0.30176  -0.4264    0.05126 
 C                     0.85954   0.66744   0.07808 
 C                     0.14401   1.80201  -0.0446 
 C                    -1.18676   1.69022  -0.19463 
 C                     2.19439   0.7412    0.23025 
 C                     2.81562   1.93158   0.25997 
 C                     2.09889   3.05948   0.13702 
 C                     0.7669    2.99319  -0.01461 
 N                    -3.20729  -3.21197  -0.26334 
 N                     4.07379   1.98594   0.40368 
 H                    -4.64522  -1.12245  -0.50087 
 H                    -0.7435   -2.7049    0.00654 
 H                    -3.74339   1.12027  -0.47166 
 H                    -1.81822   2.58818  -0.29907 
 H                     2.78185  -0.18796   0.33119 
 H                     2.59407   4.04524   0.15927 
 H                     0.19486   3.93137  -0.114 
 H                    -2.57763  -4.04524  -0.16207 
 H                    -4.2385   -3.36773  -0.37818 
 H                     4.64522   1.11126   0.50087 
 H                     4.56164   2.91454   0.42718 
 

 GradGradGradGradGradGradGradGradGradGradGradGradGradGradGradGradGradGrad
 Berny optimization.
 Initialization pass.
                           ----------------------------
                           !    Initial Parameters    !
                           ! (Angstroms and Degrees)  !
 --------------------------                            --------------------------
 ! Name  Definition              Value          Derivative Info.                !
 --------------------------------------------------------------------------------
 ! R1    R(1,2)                  1.342          estimate D2E/DX2                !
 ! R2    R(1,6)                  1.3422         estimate D2E/DX2                !
 ! R3    R(1,17)                 1.1034         estimate D2E/DX2                !
 ! R4    R(2,3)                  1.3431         estimate D2E/DX2                !
 ! R5    R(2,15)                 1.2675         estimate D2E/DX2                !
 ! R6    R(3,4)                  1.3455         estimate D2E/DX2                !
 ! R7    R(3,18)                 1.1039         estimate D2E/DX2                !
 ! R8    R(4,5)                  1.347          estimate D2E/DX2                !
 ! R9    R(4,7)                  1.2281         estimate D2E/DX2                !
 ! R10   R(5,6)                  1.3446         estimate D2E/DX2                !
 ! R11   R(5,10)                 1.3438         estimate D2E/DX2                !
 ! R12   R(6,19)                 1.1033         estimate D2E/DX2                !
 ! R13   R(7,8)                  1.2281         estimate D2E/DX2                !
 ! R14   R(8,9)                  1.347          estimate D2E/DX2                !
 ! R15   R(8,11)                 1.3455         estimate D2E/DX2                !
 ! R16   R(9,10)                 1.3439         estimate D2E/DX2                !
 ! R17   R(9,14)                 1.3445         estimate D2E/DX2                !
 ! R18   R(10,20)                1.1027         estimate D2E/DX2                !
 ! R19   R(11,12)                1.3431         estimate D2E/DX2                !
 ! R20   R(11,21)                1.1039         estimate D2E/DX2                !
 ! R21   R(12,13)                1.342          estimate D2E/DX2                !
 ! R22   R(12,16)                1.2675         estimate D2E/DX2                !
 ! R23   R(13,14)                1.3422         estimate D2E/DX2                !
 ! R24   R(13,22)                1.1034         estimate D2E/DX2                !
 ! R25   R(14,23)                1.1033         estimate D2E/DX2                !
 ! R26   R(15,24)                1.0493         estimate D2E/DX2                !
 ! R27   R(15,25)                1.0492         estimate D2E/DX2                !
 ! R28   R(16,26)                1.0493         estimate D2E/DX2                !
 ! R29   R(16,27)                1.0492         estimate D2E/DX2                !
 ! A1    A(2,1,6)              119.9244         estimate D2E/DX2                !
 ! A2    A(2,1,17)             120.6212         estimate D2E/DX2                !
 ! A3    A(6,1,17)             119.4544         estimate D2E/DX2                !
 ! A4    A(1,2,3)              119.7267         estimate D2E/DX2                !
 ! A5    A(1,2,15)             120.2972         estimate D2E/DX2                !
 ! A6    A(3,2,15)             119.9761         estimate D2E/DX2                !
 ! A7    A(2,3,4)              120.6606         estimate D2E/DX2                !
 ! A8    A(2,3,18)             119.858          estimate D2E/DX2                !
 ! A9    A(4,3,18)             119.4814         estimate D2E/DX2                !
 ! A10   A(3,4,5)              119.416          estimate D2E/DX2                !
 ! A11   A(3,4,7)              120.1231         estimate D2E/DX2                !
 ! A12   A(5,4,7)              120.4609         estimate D2E/DX2                !
 ! A13   A(4,5,6)              119.8755         estimate D2E/DX2                !
 ! A14   A(4,5,10)             117.7852         estimate D2E/DX2                !
 ! A15   A(6,5,10)             122.3393         estimate D2E/DX2                !
 ! A16   A(1,6,5)              120.3967         estimate D2E/DX2                !
 ! A17   A(1,6,19)             118.8646         estimate D2E/DX2                !
 ! A18   A(5,6,19)             120.7386         estimate D2E/DX2                !
 ! A19   A(4,7,8)              124.8235         estimate D2E/DX2                !
 ! A20   A(7,8,9)              120.4619         estimate D2E/DX2                !
 ! A21   A(7,8,11)             120.1231         estimate D2E/DX2                !
 ! A22   A(9,8,11)             119.415          estimate D2E/DX2                !
 ! A23   A(8,9,10)             117.7843         estimate D2E/DX2                !
 ! A24   A(8,9,14)             119.8753         estimate D2E/DX2                !
 ! A25   A(10,9,14)            122.3404         estimate D2E/DX2                !
 ! A26   A(5,10,9)             118.6841         estimate D2E/DX2                !
 ! A27   A(5,10,20)            120.6586         estimate D2E/DX2                !
 ! A28   A(9,10,20)            120.6573         estimate D2E/DX2                !
 ! A29   A(8,11,12)            120.6617         estimate D2E/DX2                !
 ! A30   A(8,11,21)            119.4812         estimate D2E/DX2                !
 ! A31   A(12,11,21)           119.8571         estimate D2E/DX2                !
 ! A32   A(11,12,13)           119.726          estimate D2E/DX2                !
 ! A33   A(11,12,16)           119.9769         estimate D2E/DX2                !
 ! A34   A(13,12,16)           120.2971         estimate D2E/DX2                !
 ! A35   A(12,13,14)           119.9236         estimate D2E/DX2                !
 ! A36   A(12,13,22)           120.6198         estimate D2E/DX2                !
 ! A37   A(14,13,22)           119.4566         estimate D2E/DX2                !
 ! A38   A(9,14,13)            120.3984         estimate D2E/DX2                !
 ! A39   A(9,14,23)            120.7394         estimate D2E/DX2                !
 ! A40   A(13,14,23)           118.8622         estimate D2E/DX2                !
 ! A41   A(2,15,24)            121.02           estimate D2E/DX2                !
 ! A42   A(2,15,25)            120.1346         estimate D2E/DX2                !
 ! A43   A(24,15,25)           118.8454         estimate D2E/DX2                !
 ! A44   A(12,16,26)           121.0187         estimate D2E/DX2                !
 ! A45   A(12,16,27)           120.1347         estimate D2E/DX2                !
 ! A46   A(26,16,27)           118.8466         estimate D2E/DX2                !
 ! D1    D(6,1,2,3)              0.012          estimate D2E/DX2                !
 ! D2    D(6,1,2,15)          -179.9872         estimate D2E/DX2                !
 ! D3    D(17,1,2,3)           179.9985         estimate D2E/DX2                !
 ! D4    D(17,1,2,15)           -0.0008         estimate D2E/DX2                !
 ! D5    D(2,1,6,5)              0.0073         estimate D2E/DX2                !
 ! D6    D(2,1,6,19)           179.9829         estimate D2E/DX2                !
 ! D7    D(17,1,6,5)          -179.9793         estimate D2E/DX2                !
 ! D8    D(17,1,6,19)           -0.0037         estimate D2E/DX2                !
 ! D9    D(1,2,3,4)             -0.0153         estimate D2E/DX2                !
 ! D10   D(1,2,3,18)           179.9958         estimate D2E/DX2                !
 ! D11   D(15,2,3,4)           179.984          estimate D2E/DX2                !
 ! D12   D(15,2,3,18)           -0.005          estimate D2E/DX2                !
 ! D13   D(1,2,15,24)         -179.9996         estimate D2E/DX2                !
 ! D14   D(1,2,15,25)            0.0007         estimate D2E/DX2                !
 ! D15   D(3,2,15,24)            0.0012         estimate D2E/DX2                !
 ! D16   D(3,2,15,25)         -179.9985         estimate D2E/DX2                !
 ! D17   D(2,3,4,5)             -0.0008         estimate D2E/DX2                !
 ! D18   D(2,3,4,7)           -179.9934         estimate D2E/DX2                !
 ! D19   D(18,3,4,5)           179.9882         estimate D2E/DX2                !
 ! D20   D(18,3,4,7)            -0.0044         estimate D2E/DX2                !
 ! D21   D(3,4,5,6)              0.02           estimate D2E/DX2                !
 ! D22   D(3,4,5,10)          -179.9493         estimate D2E/DX2                !
 ! D23   D(7,4,5,6)           -179.9874         estimate D2E/DX2                !
 ! D24   D(7,4,5,10)             0.0433         estimate D2E/DX2                !
 ! D25   D(3,4,7,8)            179.9371         estimate D2E/DX2                !
 ! D26   D(5,4,7,8)             -0.0555         estimate D2E/DX2                !
 ! D27   D(4,5,6,1)             -0.0234         estimate D2E/DX2                !
 ! D28   D(4,5,6,19)          -179.9986         estimate D2E/DX2                !
 ! D29   D(10,5,6,1)           179.9445         estimate D2E/DX2                !
 ! D30   D(10,5,6,19)           -0.0307         estimate D2E/DX2                !
 ! D31   D(4,5,10,9)             0.0081         estimate D2E/DX2                !
 ! D32   D(4,5,10,20)          179.9725         estimate D2E/DX2                !
 ! D33   D(6,5,10,9)          -179.9604         estimate D2E/DX2                !
 ! D34   D(6,5,10,20)            0.004          estimate D2E/DX2                !
 ! D35   D(4,7,8,9)              0.0123         estimate D2E/DX2                !
 ! D36   D(4,7,8,11)          -179.9627         estimate D2E/DX2                !
 ! D37   D(7,8,9,10)             0.0403         estimate D2E/DX2                !
 ! D38   D(7,8,9,14)          -179.95           estimate D2E/DX2                !
 ! D39   D(11,8,9,10)         -179.9845         estimate D2E/DX2                !
 ! D40   D(11,8,9,14)            0.0251         estimate D2E/DX2                !
 ! D41   D(7,8,11,12)          179.9445         estimate D2E/DX2                !
 ! D42   D(7,8,11,21)           -0.0425         estimate D2E/DX2                !
 ! D43   D(9,8,11,12)           -0.0307         estimate D2E/DX2                !
 ! D44   D(9,8,11,21)          179.9823         estimate D2E/DX2                !
 ! D45   D(8,9,10,5)            -0.0477         estimate D2E/DX2                !
 ! D46   D(8,9,10,20)          179.9879         estimate D2E/DX2                !
 ! D47   D(14,9,10,5)          179.9424         estimate D2E/DX2                !
 ! D48   D(14,9,10,20)          -0.022          estimate D2E/DX2                !
 ! D49   D(8,9,14,13)           -0.0021         estimate D2E/DX2                !
 ! D50   D(8,9,14,23)          179.9866         estimate D2E/DX2                !
 ! D51   D(10,9,14,13)        -179.992          estimate D2E/DX2                !
 ! D52   D(10,9,14,23)          -0.0033         estimate D2E/DX2                !
 ! D53   D(8,11,12,13)           0.013          estimate D2E/DX2                !
 ! D54   D(8,11,12,16)        -179.9872         estimate D2E/DX2                !
 ! D55   D(21,11,12,13)        180.0            estimate D2E/DX2                !
 ! D56   D(21,11,12,16)         -0.0003         estimate D2E/DX2                !
 ! D57   D(11,12,13,14)          0.0104         estimate D2E/DX2                !
 ! D58   D(11,12,13,22)       -179.9923         estimate D2E/DX2                !
 ! D59   D(16,12,13,14)       -179.9894         estimate D2E/DX2                !
 ! D60   D(16,12,13,22)          0.0079         estimate D2E/DX2                !
 ! D61   D(11,12,16,26)         -0.0019         estimate D2E/DX2                !
 ! D62   D(11,12,16,27)        179.9963         estimate D2E/DX2                !
 ! D63   D(13,12,16,26)        179.9979         estimate D2E/DX2                !
 ! D64   D(13,12,16,27)         -0.0039         estimate D2E/DX2                !
 ! D65   D(12,13,14,9)          -0.0158         estimate D2E/DX2                !
 ! D66   D(12,13,14,23)        179.9953         estimate D2E/DX2                !
 ! D67   D(22,13,14,9)         179.9868         estimate D2E/DX2                !
 ! D68   D(22,13,14,23)         -0.0021         estimate D2E/DX2                !
 --------------------------------------------------------------------------------
 Trust Radius=3.00D-01 FncErr=1.00D-07 GrdErr=1.00D-06
 Number of steps in this run=    153 maximum allowed number of steps=    162.
 GradGradGradGradGradGradGradGradGradGradGradGradGradGradGradGradGradGrad

                          Input orientation:                          
 ---------------------------------------------------------------------
 Center     Atomic      Atomic             Coordinates (Angstroms)
 Number     Number       Type             X           Y           Z
 ---------------------------------------------------------------------
      1          6           0       -3.558044   -0.978726   -0.379106
      2          6           0       -2.739424   -2.034056   -0.248391
      3          6           0       -1.418863   -1.838351   -0.101229
      4          6           0       -0.907379   -0.593958   -0.083759
      5          6           0       -1.732611    0.462409   -0.215608
      6          6           0       -3.054522    0.265389   -0.362488
      7          8           0        0.301758   -0.426404    0.051256
      8          6           0        0.859535    0.667439    0.078082
      9          6           0        0.144006    1.802011   -0.044596
     10          6           0       -1.186755    1.690220   -0.194634
     11          6           0        2.194391    0.741201    0.230250
     12          6           0        2.815618    1.931584    0.259965
     13          6           0        2.098889    3.059477    0.137018
     14          6           0        0.766897    2.993191   -0.014607
     15          7           0       -3.207290   -3.211974   -0.263340
     16          7           0        4.073789    1.985939    0.403684
     17          1           0       -4.645220   -1.122454   -0.500869
     18          1           0       -0.743497   -2.704895    0.006544
     19          1           0       -3.743386    1.120266   -0.471656
     20          1           0       -1.818221    2.588177   -0.299065
     21          1           0        2.781850   -0.187959    0.331188
     22          1           0        2.594071    4.045244    0.159267
     23          1           0        0.194857    3.931370   -0.114004
     24          1           0       -2.577633   -4.045244   -0.162069
     25          1           0       -4.238500   -3.367730   -0.378182
     26          1           0        4.645220    1.111258    0.500869
     27          1           0        4.561644    2.914541    0.427181
 ---------------------------------------------------------------------
                    Distance matrix (angstroms):
                    1          2          3          4          5
     1  C    0.000000
     2  C    1.341993   0.000000
     3  C    2.322125   1.343071   0.000000
     4  C    2.694680   2.336102   1.345524   0.000000
     5  C    2.331482   2.692041   2.324869   1.346961   0.000000
     6  C    1.342249   2.323737   2.677566   2.329461   1.344559
     7  O    3.922798   3.452987   2.231005   1.228135   2.236037
     8  C    4.736442   4.511892   3.391494   2.176993   2.616775
     9  C    4.642151   4.803240   3.962070   2.616794   2.312027
    10  C    3.574957   4.035332   3.537430   2.303869   1.343845
    11  C    6.034896   5.680993   4.451918   3.391494   3.962052
    12  C    7.035757   6.844211   5.680995   4.511897   4.803231
    13  C    6.969531   7.035758   6.034903   4.736452   4.642144
    14  C    5.883375   6.133690   5.303664   3.959245   3.562695
    15  N    2.263587   1.267522   2.260883   3.489391   3.959551
    16  N    8.224772   7.937596   6.711882   5.630764   6.034811
    17  H    1.103375   2.127633   3.328904   3.797992   3.328131
    18  H    3.324163   2.121024   1.103917   2.119214   3.325585
    19  H    2.109191   3.317760   3.780746   3.336460   2.131092
    20  H    3.969406   4.713409   4.448907   3.316922   2.129127
    21  H    6.428381   5.850509   4.533957   3.734625   4.593726
    22  H    7.961070   8.097545   7.126583   5.817337   5.630046
    23  H    6.185757   6.649389   5.991155   4.657728   3.969779
    24  H    3.226739   2.019531   2.493356   3.835004   4.586487
    25  H    2.484021   2.010662   3.219636   4.344751   4.579943
    26  H    8.510930   8.061474   6.770215   5.837886   6.450665
    27  H    9.040850   8.845937   7.657393   6.517733   6.785556
                    6          7          8          9         10
     6  C    0.000000
     7  O    3.451721   0.000000
     8  C    3.959241   1.228140   0.000000
     9  C    3.562702   2.236047   1.346954   0.000000
    10  C    2.355180   2.599275   2.303857   1.343850   0.000000
    11  C    5.303661   2.231009   1.345525   2.324852   3.537416
    12  C    6.133694   3.452993   2.336109   2.692036   4.035332
    13  C    5.883373   3.922805   2.694683   2.331474   3.574957
    14  C    4.707990   3.451713   2.329441   1.344545   2.355186
    15  N    3.482129   4.491301   5.630762   6.034822   5.302715
    16  N    7.372932   4.491305   3.489396   3.959543   5.302712
    17  H    2.115556   5.026124   5.817321   5.630041   4.468321
    18  H    3.781482   2.507205   3.734631   4.593743   4.421989
    19  H    1.103298   4.362203   4.657697   3.969757   2.633999
    20  H    2.632073   3.701991   3.316904   2.129119   1.102716
    21  H    5.894909   2.507204   2.119213   3.325570   4.421976
    22  H    6.816607   5.026132   3.797996   3.328134   4.468336
    23  H    4.905061   4.362217   3.336456   2.131097   2.634029
    24  H    4.341561   4.629514   5.837909   6.450698   5.901792
    25  H    3.821205   5.426763   6.517724   6.785563   5.910135
    26  H    7.794030   4.629494   3.834988   4.586458   5.901767
    27  H    8.102319   5.426773   4.344761   4.579937   5.910136
                   11         12         13         14         15
    11  C    0.000000
    12  C    1.343063   0.000000
    13  C    2.322115   1.341998   0.000000
    14  C    2.677527   2.323716   1.342232   0.000000
    15  N    6.711884   7.937598   8.224775   7.372930   0.000000
    16  N    2.260882   1.267519   2.263587   3.482105   8.970916
    17  H    7.126572   8.097538   7.961059   6.816597   2.547579
    18  H    4.533962   5.850509   6.428388   5.894906   2.529870
    19  H    5.991123   6.649364   6.185726   4.905038   4.370251
    20  H    4.448882   4.713395   3.969388   2.632069   5.964272
    21  H    1.103918   2.121008   3.324151   3.781445   6.735572
    22  H    3.328886   2.127623   1.103375   2.115564   9.300624
    23  H    3.780718   3.317738   2.109158   1.103308   7.913550
    24  H    6.770242   8.061498   8.510956   7.794049   1.049315
    25  H    7.657388   8.845934   9.040847   8.102315   1.049211
    26  H    2.493339   2.019508   3.226724   4.341518   8.996458
    27  H    3.219639   2.010665   2.484022   3.821187   9.918031
                   16         17         18         19         20
    16  N    0.000000
    17  H    9.300615   0.000000
    18  H    6.735569   4.240876   0.000000
    19  H    7.913522   2.417427   4.884656   0.000000
    20  H    5.964254   4.669200   5.409717   2.427099   0.000000
    21  H    2.529861   7.531731   4.343781   6.703336   5.409695
    22  H    2.547556   8.918981   7.531737   7.008347   4.669200
    23  H    4.370219   7.008363   6.703361   4.851802   2.427117
    24  H    8.996480   3.596165   2.277942   5.304462   6.678155
    25  H    9.918026   2.285112   3.578046   4.516191   6.429373
    26  H    1.049307   9.607561   6.621605   8.444797   6.678118
    27  H    1.049217  10.095789   7.739478   8.544054   6.429356
                   21         22         23         24         25
    21  H    0.000000
    22  H    4.240852   0.000000
    23  H    4.884629   2.417410   0.000000
    24  H    6.621632   9.607589   8.444844   0.000000
    25  H    7.739474  10.095794   8.544080   1.806712   0.000000
    26  H    2.277917   3.596134   5.304416   8.899360   9.987720
    27  H    3.578042   2.285084   4.516154   9.987747  10.842420
                   26         27
    26  H    0.000000
    27  H    1.806722   0.000000
 Stoichiometry    C13H11N2O(1+)
 Framework group  C1[X(C13H11N2O)]
 Deg. of freedom    75
 Full point group                 C1      NOp   1
 Largest Abelian subgroup         C1      NOp   1
 Largest concise Abelian subgroup C1      NOp   1
                         Standard orientation:                         
 ---------------------------------------------------------------------
 Center     Atomic      Atomic             Coordinates (Angstroms)
 Number     Number       Type             X           Y           Z
 ---------------------------------------------------------------------
      1          6           0        3.484765    0.820769    0.000239
      2          6           0        3.422106   -0.519761    0.000652
      3          6           0        2.225960   -1.130558   -0.000090
      4          6           0        1.088500   -0.411795   -0.000935
      5          6           0        1.156009    0.933473   -0.001018
      6          6           0        2.353992    1.543945   -0.000668
      7          8           0        0.000004   -0.980558   -0.001485
      8          6           0       -1.088493   -0.411786   -0.001161
      9          6           0       -1.156018    0.933474   -0.000384
     10          6           0       -0.000001    1.618717   -0.000820
     11          6           0       -2.225957   -1.130543   -0.001073
     12          6           0       -3.422104   -0.519766    0.000398
     13          6           0       -3.484765    0.820768    0.001532
     14          6           0       -2.353998    1.543921    0.000980
     15          7           0        4.485460   -1.209609    0.001751
     16          7           0       -4.485456   -1.209612    0.000707
     17          1           0        4.459484    1.337837    0.000861
     18          1           0        2.171890   -2.233150    0.000178
     19          1           0        2.425881    2.644898   -0.000707
     20          1           0       -0.000011    2.721432   -0.000422
     21          1           0       -2.171890   -2.233135   -0.002007
     22          1           0       -4.459497    1.337811    0.002874
     23          1           0       -2.425920    2.644882    0.001851
     24          1           0        4.449693   -2.258315    0.002078
     25          1           0        5.421209   -0.735040    0.002355
     26          1           0       -4.449667   -2.258308   -0.000201
     27          1           0       -5.421211   -0.735041    0.001914
 ---------------------------------------------------------------------
 Rotational constants (GHZ):      1.8723896      0.3140968      0.2689757
 Standard basis: 6-311++G(d,p) (5D, 7F)
 There are   445 symmetry adapted cartesian basis functions of A   symmetry.
 There are   429 symmetry adapted basis functions of A   symmetry.
   429 basis functions,   675 primitive gaussians,   445 cartesian basis functions
    55 alpha electrons       55 beta electrons
       nuclear repulsion energy      1047.8157161245 Hartrees.
 NAtoms=   27 NActive=   27 NUniq=   27 SFac= 1.00D+00 NAtFMM=   60 NAOKFM=F Big=F
 Integral buffers will be    131072 words long.
 Raffenetti 2 integral format.
 Two-electron integral symmetry is turned on.
 One-electron integrals computed using PRISM.
 NBasis=   429 RedAO= T EigKep=  1.78D-06  NBF=   429
 NBsUse=   422 1.00D-06 EigRej=  9.49D-07 NBFU=   422
 ExpMin= 3.60D-02 ExpMax= 8.59D+03 ExpMxC= 1.30D+03 IAcc=3 IRadAn=         5 AccDes= 0.00D+00
 Harris functional with IExCor=  402 and IRadAn=       5 diagonalized for initial guess.
 HarFok:  IExCor=  402 AccDes= 0.00D+00 IRadAn=         5 IDoV= 1 UseB2=F ITyADJ=14
 ICtDFT=  3500011 ScaDFX=  1.000000  1.000000  1.000000  1.000000
 FoFCou: FMM=F IPFlag=           0 FMFlag=      100000 FMFlg1=           0
         NFxFlg=           0 DoJE=T BraDBF=F KetDBF=T FulRan=T
         wScrn=  0.000000 ICntrl=     500 IOpCl=  0 I1Cent=   200000004 NGrid=           0
         NMat0=    1 NMatS0=      1 NMatT0=    0 NMatD0=    1 NMtDS0=    0 NMtDT0=    0
 Petite list used in FoFCou.
 Keep R1 ints in memory in canonical form, NReq=4298676604.
 Requested convergence on RMS density matrix=1.00D-08 within 128 cycles.
 Requested convergence on MAX density matrix=1.00D-06.
 Requested convergence on             energy=1.00D-06.
 No special actions if energy rises.
 EnCoef did     2 forward-backward iterations
 SCF Done:  E(RB3LYP) =  -686.609063119     A.U. after   14 cycles
            NFock= 14  Conv=0.78D-08     -V/T= 1.9996

 **********************************************************************

            Population analysis using the SCF density.

 **********************************************************************

 Orbital symmetries:
       Occupied  (A) (A) (A) (A) (A) (A) (A) (A) (A) (A) (A) (A)
                 (A) (A) (A) (A) (A) (A) (A) (A) (A) (A) (A) (A)
                 (A) (A) (A) (A) (A) (A) (A) (A) (A) (A) (A) (A)
                 (A) (A) (A) (A) (A) (A) (A) (A) (A) (A) (A) (A)
                 (A) (A) (A) (A) (A) (A) (A)
       Virtual   (A) (A) (A) (A) (A) (A) (A) (A) (A) (A) (A) (A)
                 (A) (A) (A) (A) (A) (A) (A) (A) (A) (A) (A) (A)
                 (A) (A) (A) (A) (A) (A) (A) (A) (A) (A) (A) (A)
                 (A) (A) (A) (A) (A) (A) (A) (A) (A) (A) (A) (A)
                 (A) (A) (A) (A) (A) (A) (A) (A) (A) (A) (A) (A)
                 (A) (A) (A) (A) (A) (A) (A) (A) (A) (A) (A) (A)
                 (A) (A) (A) (A) (A) (A) (A) (A) (A) (A) (A) (A)
                 (A) (A) (A) (A) (A) (A) (A) (A) (A) (A) (A) (A)
                 (A) (A) (A) (A) (A) (A) (A) (A) (A) (A) (A) (A)
                 (A) (A) (A) (A) (A) (A) (A) (A) (A) (A) (A) (A)
                 (A) (A) (A) (A) (A) (A) (A) (A) (A) (A) (A) (A)
                 (A) (A) (A) (A) (A) (A) (A) (A) (A) (A) (A) (A)
                 (A) (A) (A) (A) (A) (A) (A) (A) (A) (A) (A) (A)
                 (A) (A) (A) (A) (A) (A) (A) (A) (A) (A) (A) (A)
                 (A) (A) (A) (A) (A) (A) (A) (A) (A) (A) (A) (A)
                 (A) (A) (A) (A) (A) (A) (A) (A) (A) (A) (A) (A)
                 (A) (A) (A) (A) (A) (A) (A) (A) (A) (A) (A) (A)
                 (A) (A) (A) (A) (A) (A) (A) (A) (A) (A) (A) (A)
                 (A) (A) (A) (A) (A) (A) (A) (A) (A) (A) (A) (A)
                 (A) (A) (A) (A) (A) (A) (A) (A) (A) (A) (A) (A)
                 (A) (A) (A) (A) (A) (A) (A) (A) (A) (A) (A) (A)
                 (A) (A) (A) (A) (A) (A) (A) (A) (A) (A) (A) (A)
                 (A) (A) (A) (A) (A) (A) (A) (A) (A) (A) (A) (A)
                 (A) (A) (A) (A) (A) (A) (A) (A) (A) (A) (A) (A)
                 (A) (A) (A) (A) (A) (A) (A) (A) (A) (A) (A) (A)
                 (A) (A) (A) (A) (A) (A) (A) (A) (A) (A) (A) (A)
                 (A) (A) (A) (A) (A) (A) (A) (A) (A) (A) (A) (A)
                 (A) (A) (A) (A) (A) (A) (A) (A) (A) (A) (A) (A)
                 (A) (A) (A) (A) (A) (A) (A) (A) (A) (A) (A) (A)
                 (A) (A) (A) (A) (A) (A) (A) (A) (A) (A) (A) (A)
                 (A) (A) (A) (A) (A) (A) (A)
 The electronic state is 1-A.
 Alpha  occ. eigenvalues --  -19.34986 -14.47399 -14.47399 -10.37957 -10.37956
 Alpha  occ. eigenvalues --  -10.34967 -10.34966 -10.33723 -10.31146 -10.31146
 Alpha  occ. eigenvalues --  -10.30586 -10.30584 -10.29837 -10.29837 -10.29227
 Alpha  occ. eigenvalues --  -10.29226  -1.35822  -1.10879  -1.10767  -1.03857
 Alpha  occ. eigenvalues --   -1.03855  -0.95799  -0.95704  -0.89178  -0.89128
 Alpha  occ. eigenvalues --   -0.84125  -0.81526  -0.80154  -0.76513  -0.73968
 Alpha  occ. eigenvalues --   -0.73396  -0.69898  -0.67645  -0.67584  -0.66291
 Alpha  occ. eigenvalues --   -0.64485  -0.63390  -0.61733  -0.59984  -0.58055
 Alpha  occ. eigenvalues --   -0.56984  -0.56847  -0.56506  -0.55606  -0.55310
 Alpha  occ. eigenvalues --   -0.52748  -0.51343  -0.51249  -0.50433  -0.48429
 Alpha  occ. eigenvalues --   -0.47646  -0.41542  -0.39868  -0.36677  -0.34255
 Alpha virt. eigenvalues --   -0.21823  -0.14875  -0.13264  -0.12008  -0.11626
 Alpha virt. eigenvalues --   -0.11332  -0.10313  -0.09503  -0.08947  -0.07897
 Alpha virt. eigenvalues --   -0.07799  -0.07307  -0.06963  -0.05397  -0.04931
 Alpha virt. eigenvalues --   -0.04249  -0.04079  -0.04050  -0.03773  -0.02006
 Alpha virt. eigenvalues --   -0.01969  -0.01627  -0.01239  -0.00821  -0.00417
 Alpha virt. eigenvalues --   -0.00337   0.00113   0.01334   0.01768   0.01784
 Alpha virt. eigenvalues --    0.02026   0.02348   0.02672   0.03241   0.03307
 Alpha virt. eigenvalues --    0.03350   0.03376   0.03929   0.04082   0.04136
 Alpha virt. eigenvalues --    0.06071   0.06292   0.06523   0.06571   0.07341
 Alpha virt. eigenvalues --    0.07667   0.07909   0.08217   0.08395   0.08410
 Alpha virt. eigenvalues --    0.08493   0.09085   0.09965   0.10088   0.10432
 Alpha virt. eigenvalues --    0.11000   0.11892   0.12113   0.12695   0.13245
 Alpha virt. eigenvalues --    0.13311   0.13556   0.13681   0.14262   0.14667
 Alpha virt. eigenvalues --    0.15228   0.15768   0.16361   0.16912   0.17209
 Alpha virt. eigenvalues --    0.17490   0.17492   0.18096   0.18791   0.18834
 Alpha virt. eigenvalues --    0.18922   0.19929   0.20374   0.20478   0.21183
 Alpha virt. eigenvalues --    0.21743   0.22822   0.23275   0.23940   0.24194
 Alpha virt. eigenvalues --    0.24417   0.25652   0.25919   0.26124   0.27451
 Alpha virt. eigenvalues --    0.28728   0.29263   0.29633   0.31303   0.31855
 Alpha virt. eigenvalues --    0.33911   0.35531   0.36815   0.39802   0.40406
 Alpha virt. eigenvalues --    0.41113   0.41220   0.41369   0.41651   0.42826
 Alpha virt. eigenvalues --    0.43832   0.44078   0.44154   0.45730   0.46397
 Alpha virt. eigenvalues --    0.46453   0.46814   0.47750   0.47955   0.48184
 Alpha virt. eigenvalues --    0.48445   0.50565   0.50820   0.51702   0.53015
 Alpha virt. eigenvalues --    0.53256   0.53981   0.54953   0.55364   0.55625
 Alpha virt. eigenvalues --    0.56192   0.58524   0.58854   0.59070   0.60297
 Alpha virt. eigenvalues --    0.61466   0.61925   0.63245   0.63460   0.64827
 Alpha virt. eigenvalues --    0.66247   0.66781   0.67229   0.67476   0.69755
 Alpha virt. eigenvalues --    0.70626   0.71291   0.71714   0.72218   0.73961
 Alpha virt. eigenvalues --    0.75309   0.75863   0.76678   0.76701   0.76845
 Alpha virt. eigenvalues --    0.78620   0.78891   0.79521   0.79766   0.80663
 Alpha virt. eigenvalues --    0.81053   0.81287   0.82706   0.83393   0.83594
 Alpha virt. eigenvalues --    0.84844   0.85700   0.86177   0.88769   0.88866
 Alpha virt. eigenvalues --    0.89034   0.91193   0.93082   0.93809   0.95397
 Alpha virt. eigenvalues --    0.95550   0.96092   0.97338   0.97871   0.98386
 Alpha virt. eigenvalues --    0.99662   1.01548   1.05444   1.05524   1.06222
 Alpha virt. eigenvalues --    1.06333   1.09123   1.09846   1.10390   1.16334
 Alpha virt. eigenvalues --    1.16908   1.21381   1.21661   1.23371   1.25833
 Alpha virt. eigenvalues --    1.28847   1.32817   1.32869   1.34723   1.35351
 Alpha virt. eigenvalues --    1.37152   1.38960   1.39185   1.44348   1.44940
 Alpha virt. eigenvalues --    1.45746   1.45805   1.46707   1.46778   1.47558
 Alpha virt. eigenvalues --    1.48031   1.48092   1.52091   1.52844   1.54604
 Alpha virt. eigenvalues --    1.55353   1.55638   1.55673   1.57702   1.59042
 Alpha virt. eigenvalues --    1.59425   1.62920   1.63130   1.64827   1.65328
 Alpha virt. eigenvalues --    1.67891   1.72485   1.73889   1.74676   1.76254
 Alpha virt. eigenvalues --    1.76793   1.77788   1.78179   1.79900   1.81275
 Alpha virt. eigenvalues --    1.82270   1.83314   1.83600   1.85581   1.85982
 Alpha virt. eigenvalues --    1.86048   1.86861   1.87527   1.89532   1.91818
 Alpha virt. eigenvalues --    1.92286   1.92416   1.92588   1.96097   2.00042
 Alpha virt. eigenvalues --    2.00585   2.02029   2.04899   2.06309   2.07345
 Alpha virt. eigenvalues --    2.07876   2.09162   2.11528   2.16777   2.17252
 Alpha virt. eigenvalues --    2.19190   2.19436   2.21212   2.25463   2.30410
 Alpha virt. eigenvalues --    2.34745   2.35654   2.39188   2.40091   2.40866
 Alpha virt. eigenvalues --    2.42316   2.42399   2.42962   2.46719   2.49827
 Alpha virt. eigenvalues --    2.52404   2.52554   2.54175   2.55239   2.55490
 Alpha virt. eigenvalues --    2.58164   2.59797   2.61731   2.62020   2.62571
 Alpha virt. eigenvalues --    2.63731   2.65592   2.66637   2.67027   2.67433
 Alpha virt. eigenvalues --    2.68422   2.68992   2.72278   2.72480   2.75600
 Alpha virt. eigenvalues --    2.76535   2.77048   2.77534   2.80028   2.80552
 Alpha virt. eigenvalues --    2.81131   2.82494   2.84633   2.86516   2.87057
 Alpha virt. eigenvalues --    2.87176   2.91771   2.93710   2.96704   2.98783
 Alpha virt. eigenvalues --    3.00700   3.10401   3.11167   3.13851   3.19171
 Alpha virt. eigenvalues --    3.21613   3.26505   3.27737   3.29962   3.33357
 Alpha virt. eigenvalues --    3.33738   3.34170   3.36981   3.37789   3.42447
 Alpha virt. eigenvalues --    3.43519   3.46075   3.46115   3.51823   3.54300
 Alpha virt. eigenvalues --    3.54999   3.66757   3.66768   3.75197   3.75579
 Alpha virt. eigenvalues --    3.76051   3.83186   3.86375   3.88024   3.96400
 Alpha virt. eigenvalues --    3.97795   4.03656   4.06016   4.13077   4.16091
 Alpha virt. eigenvalues --    4.30524   4.51695   4.55432   4.55589   4.81135
 Alpha virt. eigenvalues --    4.82373   4.86427   4.90653   4.91623   5.36439
 Alpha virt. eigenvalues --    6.11993  23.45433  23.65140  23.89864  23.95545
 Alpha virt. eigenvalues --   23.95753  24.03203  24.07020  24.15240  24.15309
 Alpha virt. eigenvalues --   24.16499  24.20440  24.27218  24.29171  35.60121
 Alpha virt. eigenvalues --   35.60765  49.96093
          Condensed to atoms (all electrons):
               1          2          3          4          5          6
     1  C    7.262874   0.283965  -0.575847  -1.099444  -0.229988   0.890705
     2  C    0.283965   7.530768   1.175320  -0.275751  -0.274124  -0.191390
     3  C   -0.575847   1.175320   8.054626   1.860646  -2.426663   0.576645
     4  C   -1.099444  -0.275751   1.860646  11.019107   0.467347   0.154618
     5  C   -0.229988  -0.274124  -2.426663   0.467347  11.454173   0.860347
     6  C    0.890705  -0.191390   0.576645   0.154618   0.860347   7.330205
     7  O    0.082047  -0.107870  -0.572904  -0.161603   0.404219   0.023040
     8  C   -0.807340  -0.212603   0.583674   0.802228  -3.212299  -1.379884
     9  C    0.177304  -0.643596  -1.998321  -3.212032  -0.228780  -1.238947
    10  C   -0.168007  -0.327659  -1.372466  -1.240031   2.074996  -0.699682
    11  C   -0.057758   0.120054   0.958560   0.583519  -1.998346  -0.153674
    12  C   -0.055562   0.002822   0.120060  -0.212644  -0.643591  -0.119034
    13  C    0.029921  -0.055566  -0.057793  -0.807420   0.177337  -0.000514
    14  C   -0.000496  -0.119046  -0.153716  -1.380034  -1.238901  -0.529963
    15  N   -0.113132  -0.089514  -0.057093   0.079793   0.018182   0.064435
    16  N    0.000304   0.000843  -0.001160   0.012762  -0.001497  -0.000243
    17  H    0.478006  -0.159273  -0.071351  -0.056304   0.075236   0.024493
    18  H   -0.037607  -0.107778   0.448698   0.065356  -0.019434   0.006547
    19  H   -0.104675   0.005129   0.033096   0.081168  -0.065926   0.331969
    20  H    0.052720  -0.002919  -0.001545  -0.049941  -0.078258   0.065244
    21  H    0.004211   0.001043   0.005157   0.032261  -0.022403  -0.006285
    22  H    0.000480  -0.001023   0.000377  -0.018231   0.017449   0.002951
    23  H   -0.000357   0.000984   0.001748   0.032137  -0.017124  -0.001465
    24  H    0.013431  -0.069812   0.017686   0.002413   0.015200  -0.002395
    25  H    0.011381  -0.036110   0.000419  -0.000788  -0.006190   0.027202
    26  H   -0.000113  -0.000135  -0.001013  -0.003663  -0.000657  -0.000017
    27  H   -0.000047   0.000026   0.000149  -0.001632  -0.003438  -0.000515
               7          8          9         10         11         12
     1  C    0.082047  -0.807340   0.177304  -0.168007  -0.057758  -0.055562
     2  C   -0.107870  -0.212603  -0.643596  -0.327659   0.120054   0.002822
     3  C   -0.572904   0.583674  -1.998321  -1.372466   0.958560   0.120060
     4  C   -0.161603   0.802228  -3.212032  -1.240031   0.583519  -0.212644
     5  C    0.404219  -3.212299  -0.228780   2.074996  -1.998346  -0.643591
     6  C    0.023040  -1.379884  -1.238947  -0.699682  -0.153674  -0.119034
     7  O    8.336501  -0.161633   0.404194   0.228396  -0.572885  -0.107867
     8  C   -0.161633  11.019085   0.467378  -1.240099   1.860725  -0.275799
     9  C    0.404194   0.467378  11.453785   2.074921  -2.426506  -0.274041
    10  C    0.228396  -1.240099   2.074921   8.112383  -1.372504  -0.327663
    11  C   -0.572885   1.860725  -2.426506  -1.372504   8.054675   1.175327
    12  C   -0.107867  -0.275799  -0.274041  -0.327663   1.175327   7.530772
    13  C    0.082058  -1.099452  -0.230058  -0.168069  -0.575917   0.283990
    14  C    0.023052   0.154467   0.860519  -0.699654   0.576564  -0.191403
    15  N   -0.006824   0.012762  -0.001496   0.003459  -0.001159   0.000843
    16  N   -0.006823   0.079792   0.018180   0.003459  -0.057103  -0.089514
    17  H    0.003427  -0.018231   0.017448   0.036189   0.000378  -0.001023
    18  H   -0.020579   0.032259  -0.022401  -0.029613   0.005152   0.001043
    19  H   -0.005132   0.032140  -0.017124   0.038903   0.001748   0.000985
    20  H    0.008070  -0.049938  -0.078261   0.321975  -0.001545  -0.002918
    21  H   -0.020580   0.065354  -0.019436  -0.029614   0.448699  -0.107777
    22  H    0.003427  -0.056304   0.075238   0.036192  -0.071358  -0.159273
    23  H   -0.005132   0.081165  -0.065931   0.038908   0.033097   0.005123
    24  H    0.000058  -0.003664  -0.000657   0.003550  -0.001013  -0.000135
    25  H   -0.000751  -0.001631  -0.003437  -0.005477   0.000149   0.000026
    26  H    0.000058   0.002415   0.015199   0.003550   0.017686  -0.069814
    27  H   -0.000751  -0.000790  -0.006190  -0.005478   0.000419  -0.036109
              13         14         15         16         17         18
     1  C    0.029921  -0.000496  -0.113132   0.000304   0.478006  -0.037607
     2  C   -0.055566  -0.119046  -0.089514   0.000843  -0.159273  -0.107778
     3  C   -0.057793  -0.153716  -0.057093  -0.001160  -0.071351   0.448698
     4  C   -0.807420  -1.380034   0.079793   0.012762  -0.056304   0.065356
     5  C    0.177337  -1.238901   0.018182  -0.001497   0.075236  -0.019434
     6  C   -0.000514  -0.529963   0.064435  -0.000243   0.024493   0.006547
     7  O    0.082058   0.023052  -0.006824  -0.006823   0.003427  -0.020579
     8  C   -1.099452   0.154467   0.012762   0.079792  -0.018231   0.032259
     9  C   -0.230058   0.860519  -0.001496   0.018180   0.017448  -0.022401
    10  C   -0.168069  -0.699654   0.003459   0.003459   0.036189  -0.029613
    11  C   -0.575917   0.576564  -0.001159  -0.057103   0.000378   0.005152
    12  C    0.283990  -0.191403   0.000843  -0.089514  -0.001023   0.001043
    13  C    7.263064   0.890724   0.000304  -0.113131   0.000480   0.004211
    14  C    0.890724   7.330303  -0.000243   0.064442   0.002950  -0.006285
    15  N    0.000304  -0.000243   6.691504  -0.000007  -0.019986  -0.019784
    16  N   -0.113131   0.064442  -0.000007   6.691505   0.000004  -0.000170
    17  H    0.000480   0.002950  -0.019986   0.000004   0.528766  -0.002950
    18  H    0.004211  -0.006285  -0.019784  -0.000170  -0.002950   0.525824
    19  H   -0.000358  -0.001467  -0.002050  -0.000012  -0.019611   0.002526
    20  H    0.052721   0.065244  -0.000344  -0.000344   0.001020  -0.000041
    21  H   -0.037608   0.006546  -0.000170  -0.019786   0.000127  -0.001210
    22  H    0.477999   0.024502   0.000004  -0.019985   0.000004   0.000127
    23  H   -0.104671   0.331972  -0.000012  -0.002050   0.000026  -0.000223
    24  H   -0.000113  -0.000017   0.373928  -0.000001   0.002680  -0.002707
    25  H   -0.000047  -0.000515   0.359475   0.000001  -0.003688   0.002631
    26  H    0.013430  -0.002395  -0.000001   0.373930  -0.000002   0.000050
    27  H    0.011380   0.027203   0.000001   0.359476  -0.000002  -0.000029
              19         20         21         22         23         24
     1  C   -0.104675   0.052720   0.004211   0.000480  -0.000357   0.013431
     2  C    0.005129  -0.002919   0.001043  -0.001023   0.000984  -0.069812
     3  C    0.033096  -0.001545   0.005157   0.000377   0.001748   0.017686
     4  C    0.081168  -0.049941   0.032261  -0.018231   0.032137   0.002413
     5  C   -0.065926  -0.078258  -0.022403   0.017449  -0.017124   0.015200
     6  C    0.331969   0.065244  -0.006285   0.002951  -0.001465  -0.002395
     7  O   -0.005132   0.008070  -0.020580   0.003427  -0.005132   0.000058
     8  C    0.032140  -0.049938   0.065354  -0.056304   0.081165  -0.003664
     9  C   -0.017124  -0.078261  -0.019436   0.075238  -0.065931  -0.000657
    10  C    0.038903   0.321975  -0.029614   0.036192   0.038908   0.003550
    11  C    0.001748  -0.001545   0.448699  -0.071358   0.033097  -0.001013
    12  C    0.000985  -0.002918  -0.107777  -0.159273   0.005123  -0.000135
    13  C   -0.000358   0.052721  -0.037608   0.477999  -0.104671  -0.000113
    14  C   -0.001467   0.065244   0.006546   0.024502   0.331972  -0.000017
    15  N   -0.002050  -0.000344  -0.000170   0.000004  -0.000012   0.373928
    16  N   -0.000012  -0.000344  -0.019786  -0.019985  -0.002050  -0.000001
    17  H   -0.019611   0.001020   0.000127   0.000004   0.000026   0.002680
    18  H    0.002526  -0.000041  -0.001210   0.000127  -0.000223  -0.002707
    19  H    0.519981  -0.003033  -0.000223   0.000026   0.000150  -0.000698
    20  H   -0.003033   0.530632  -0.000041   0.001020  -0.003033   0.000000
    21  H   -0.000223  -0.000041   0.525830  -0.002950   0.002526   0.000050
    22  H    0.000026   0.001020  -0.002950   0.528774  -0.019612  -0.000002
    23  H    0.000150  -0.003033   0.002526  -0.019612   0.519983   0.000006
    24  H   -0.000698   0.000000   0.000050  -0.000002   0.000006   0.381401
    25  H    0.001308  -0.000002  -0.000029  -0.000002  -0.000010  -0.017568
    26  H    0.000006   0.000000  -0.002707   0.002680  -0.000698   0.000000
    27  H   -0.000010  -0.000002   0.002631  -0.003688   0.001308  -0.000001
              25         26         27
     1  C    0.011381  -0.000113  -0.000047
     2  C   -0.036110  -0.000135   0.000026
     3  C    0.000419  -0.001013   0.000149
     4  C   -0.000788  -0.003663  -0.001632
     5  C   -0.006190  -0.000657  -0.003438
     6  C    0.027202  -0.000017  -0.000515
     7  O   -0.000751   0.000058  -0.000751
     8  C   -0.001631   0.002415  -0.000790
     9  C   -0.003437   0.015199  -0.006190
    10  C   -0.005477   0.003550  -0.005478
    11  C    0.000149   0.017686   0.000419
    12  C    0.000026  -0.069814  -0.036109
    13  C   -0.000047   0.013430   0.011380
    14  C   -0.000515  -0.002395   0.027203
    15  N    0.359475  -0.000001   0.000001
    16  N    0.000001   0.373930   0.359476
    17  H   -0.003688  -0.000002  -0.000002
    18  H    0.002631   0.000050  -0.000029
    19  H    0.001308   0.000006  -0.000010
    20  H   -0.000002   0.000000  -0.000002
    21  H   -0.000029  -0.002707   0.002631
    22  H   -0.000002   0.002680  -0.003688
    23  H   -0.000010  -0.000698   0.001308
    24  H   -0.017568   0.000000  -0.000001
    25  H    0.379797  -0.000001   0.000000
    26  H   -0.000001   0.381401  -0.017567
    27  H    0.000000  -0.017567   0.379797
 Mulliken charges:
               1
     1  C   -0.036978
     2  C   -0.446787
     3  C   -0.546992
     4  C   -0.673837
     5  C    0.903132
     6  C   -0.034392
     7  O    0.152788
     8  C   -0.673778
     9  C    0.903046
    10  C    0.709133
    11  C   -0.546988
    12  C   -0.446824
    13  C   -0.036907
    14  C   -0.034354
    15  N   -0.292874
    16  N   -0.292869
    17  H    0.181183
    18  H    0.176385
    19  H    0.171183
    20  H    0.173517
    21  H    0.176383
    22  H    0.181178
    23  H    0.171185
    24  H    0.288378
    25  H    0.293857
    26  H    0.288376
    27  H    0.293857
 Sum of Mulliken charges =   1.00000
 Mulliken charges with hydrogens summed into heavy atoms:
               1
     1  C    0.144205
     2  C   -0.446787
     3  C   -0.370606
     4  C   -0.673837
     5  C    0.903132
     6  C    0.136790
     7  O    0.152788
     8  C   -0.673778
     9  C    0.903046
    10  C    0.882650
    11  C   -0.370605
    12  C   -0.446824
    13  C    0.144271
    14  C    0.136831
    15  N    0.289360
    16  N    0.289363
 Electronic spatial extent (au):  <R**2>=           3843.0344
 Charge=              1.0000 electrons
 Dipole moment (field-independent basis, Debye):
    X=              0.0000    Y=             -1.1858    Z=              0.0046  Tot=              1.1859
 Quadrupole moment (field-independent basis, Debye-Ang):
   XX=             -6.1569   YY=            -66.0347   ZZ=            -94.8753
   XY=             -0.0002   XZ=              0.0046   YZ=              0.0011
 Traceless Quadrupole moment (field-independent basis, Debye-Ang):
   XX=             49.5321   YY=            -10.3457   ZZ=            -39.1863
   XY=             -0.0002   XZ=              0.0046   YZ=              0.0011
 Octapole moment (field-independent basis, Debye-Ang**2):
  XXX=             -0.0004  YYY=            -17.2988  ZZZ=             -0.0068  XYY=              0.0011
  XXY=            -69.7729  XXZ=              0.1910  XZZ=             -0.0002  YZZ=             -3.7426
  YYZ=              0.0126  XYZ=             -0.0477
 Hexadecapole moment (field-independent basis, Debye-Ang**3):
 XXXX=          -1953.3339 YYYY=           -643.9625 ZZZZ=           -101.2351 XXXY=             -0.0063
 XXXZ=              0.1057 YYYX=             -0.0011 YYYZ=              0.0110 ZZZX=              0.0119
 ZZZY=              0.0040 XXYY=           -565.4467 XXZZ=           -793.6174 YYZZ=           -167.7348
 XXYZ=             -0.0421 YYXZ=              0.0611 ZZXY=             -0.0002
 N-N= 1.047815716125D+03 E-N=-3.679565530615D+03  KE= 6.869054686105D+02

 **********************************************************************

            Electrostatic Properties Using The SCF Density

 **********************************************************************

       Atomic Center    1 is at   3.484765  0.820769  0.000239
       Atomic Center    2 is at   3.422106 -0.519761  0.000652
       Atomic Center    3 is at   2.225960 -1.130558 -0.000090
       Atomic Center    4 is at   1.088500 -0.411795 -0.000935
       Atomic Center    5 is at   1.156009  0.933473 -0.001018
       Atomic Center    6 is at   2.353992  1.543945 -0.000668
       Atomic Center    7 is at   0.000004 -0.980558 -0.001485
       Atomic Center    8 is at  -1.088493 -0.411786 -0.001161
       Atomic Center    9 is at  -1.156018  0.933474 -0.000384
       Atomic Center   10 is at  -0.000001  1.618717 -0.000820
       Atomic Center   11 is at  -2.225957 -1.130543 -0.001073
       Atomic Center   12 is at  -3.422104 -0.519766  0.000398
       Atomic Center   13 is at  -3.484765  0.820768  0.001532
       Atomic Center   14 is at  -2.353998  1.543921  0.000980
       Atomic Center   15 is at   4.485460 -1.209609  0.001751
       Atomic Center   16 is at  -4.485456 -1.209612  0.000707
       Atomic Center   17 is at   4.459484  1.337837  0.000861
       Atomic Center   18 is at   2.171890 -2.233150  0.000178
       Atomic Center   19 is at   2.425881  2.644898 -0.000707
       Atomic Center   20 is at  -0.000011  2.721432 -0.000422
       Atomic Center   21 is at  -2.171890 -2.233135 -0.002007
       Atomic Center   22 is at  -4.459497  1.337811  0.002874
       Atomic Center   23 is at  -2.425920  2.644882  0.001851
       Atomic Center   24 is at   4.449693 -2.258315  0.002078
       Atomic Center   25 is at   5.421209 -0.735040  0.002355
       Atomic Center   26 is at  -4.449667 -2.258308 -0.000201
       Atomic Center   27 is at  -5.421211 -0.735041  0.001914
 -----------------------------------------------------------------

              Electrostatic Properties (Atomic Units)

 -----------------------------------------------------------------
    Center     Electric         -------- Electric Field --------
               Potential          X             Y             Z
 -----------------------------------------------------------------
    1 Atom    -14.655485      0.007257      0.016298      0.000000
    2 Atom    -14.607190     -0.011220      0.004428     -0.000011
    3 Atom    -14.660746     -0.004648     -0.014640      0.000000
    4 Atom    -14.576139      0.035585      0.009267      0.000018
    5 Atom    -14.650595     -0.000993      0.008381     -0.000009
    6 Atom    -14.643262      0.009856      0.012063      0.000002
    7 Atom    -22.142535     -0.000001     -0.063994     -0.000036
    8 Atom    -14.576140     -0.035584      0.009266      0.000015
    9 Atom    -14.650597      0.000996      0.008381      0.000000
   10 Atom    -14.619568     -0.000001      0.012707      0.000004
   11 Atom    -14.660749      0.004649     -0.014641     -0.000015
   12 Atom    -14.607193      0.011220      0.004430     -0.000009
   13 Atom    -14.655487     -0.007259      0.016295      0.000020
   14 Atom    -14.643266     -0.009856      0.012068      0.000013
   15 Atom    -18.234916      0.022401     -0.014108      0.000023
   16 Atom    -18.234917     -0.022402     -0.014107      0.000006
   17 Atom     -0.971227      0.006037      0.002127     -0.000002
   18 Atom     -0.965312     -0.002183     -0.005834     -0.000003
   19 Atom     -0.969549     -0.002061      0.006069     -0.000008
   20 Atom     -0.949234      0.000001      0.007304     -0.000007
   21 Atom     -0.965315      0.002184     -0.005834      0.000004
   22 Atom     -0.971227     -0.006035      0.002130      0.000005
   23 Atom     -0.969551      0.002065      0.006063     -0.000002
   24 Atom     -0.875728      0.006090      0.012877      0.000001
   25 Atom     -0.876749     -0.008440     -0.011470     -0.000004
   26 Atom     -0.875731     -0.006093      0.012870      0.000016
   27 Atom     -0.876746      0.008444     -0.011473     -0.000018
 -----------------------------------------------------------------
 -----------------------------------------------------
    Center         ---- Electric Field Gradient ----
                     XX            YY            ZZ
 -----------------------------------------------------
    1 Atom     -500.813238   -500.812668   -501.157380
    2 Atom     -501.054476   -500.935095   -501.651561
    3 Atom     -500.656012   -500.767229   -500.831602
    4 Atom     -501.110459   -500.783778   -501.322209
    5 Atom     -500.794004   -500.848462   -501.194226
    6 Atom     -500.882685   -500.986810   -501.519377
    7 Atom    -1236.692735  -1234.141763  -1234.665277
    8 Atom     -501.110455   -500.783756   -501.322195
    9 Atom     -500.794022   -500.848474   -501.194241
   10 Atom     -501.065130   -501.230438   -501.946497
   11 Atom     -500.656023   -500.767247   -500.831615
   12 Atom     -501.054489   -500.935114   -501.651585
   13 Atom     -500.813268   -500.812703   -501.157421
   14 Atom     -500.882695   -500.986843   -501.519385
   15 Atom     -812.171828   -812.224231   -810.836092
   16 Atom     -812.171834   -812.224216   -810.836093
   17 Atom       -1.981922     -1.750346     -1.630923
   18 Atom       -1.658346     -2.055604     -1.616537
   19 Atom       -1.661886     -2.064175     -1.637594
   20 Atom       -1.655281     -2.059674     -1.639098
   21 Atom       -1.658350     -2.055604     -1.616540
   22 Atom       -1.981928     -1.750340     -1.630924
   23 Atom       -1.661876     -2.064137     -1.637583
   24 Atom       -1.546923     -1.973524     -1.476549
   25 Atom       -1.889912     -1.631815     -1.476540
   26 Atom       -1.546939     -1.973563     -1.476562
   27 Atom       -1.889884     -1.631796     -1.476528
 -----------------------------------------------------
 -----------------------------------------------------
    Center         ---- Electric Field Gradient ----
                     XY            XZ            YZ
 -----------------------------------------------------
    1 Atom       -0.069527      0.000226     -0.000132
    2 Atom        0.122688      0.000432     -0.000144
    3 Atom        0.000592      0.000078      0.000018
    4 Atom       -0.259318      0.000097     -0.000181
    5 Atom        0.007975      0.000039      0.000048
    6 Atom       -0.036721      0.000375     -0.000124
    7 Atom        0.000020     -0.000394     -0.000303
    8 Atom        0.259322      0.000137      0.000213
    9 Atom       -0.007978     -0.000212      0.000179
   10 Atom       -0.000002     -0.000338      0.000130
   11 Atom       -0.000596     -0.000005      0.000063
   12 Atom       -0.122688     -0.000619      0.000706
   13 Atom        0.069540     -0.000272      0.000197
   14 Atom        0.036728     -0.000555      0.000321
   15 Atom       -0.048015     -0.001086      0.000432
   16 Atom        0.048027      0.001166     -0.001236
   17 Atom       -0.164270     -0.000228     -0.000093
   18 Atom       -0.016741     -0.000027      0.000110
   19 Atom       -0.023194     -0.000005      0.000020
   20 Atom        0.000003      0.000007     -0.000145
   21 Atom        0.016740      0.000043     -0.000361
   22 Atom        0.164264      0.000465     -0.000251
   23 Atom        0.023202      0.000039     -0.000330
   24 Atom       -0.011676     -0.000053      0.000160
   25 Atom       -0.169725     -0.000280     -0.000086
   26 Atom        0.011683      0.000069     -0.000425
   27 Atom        0.169717      0.000499     -0.000278
 -----------------------------------------------------
 -----------------------------------------------------
    Center         ---- Electric Field Gradient ----
                   ----       Eigenvalues       ----
 -----------------------------------------------------
    1 Atom     -501.157380   -500.882480   -500.743425
    2 Atom     -501.651561   -501.131223   -500.858348
    3 Atom     -500.831602   -500.767232   -500.656009
    4 Atom     -501.322209   -501.253592   -500.640645
    5 Atom     -501.194226   -500.849606   -500.792860
    6 Atom     -501.519377   -500.998458   -500.871037
    7 Atom    -1236.692735  -1234.665278  -1234.141763
    8 Atom     -501.322195   -501.253587   -500.640624
    9 Atom     -501.194241   -500.849619   -500.792877
   10 Atom     -501.946498   -501.230438   -501.065130
   11 Atom     -500.831615   -500.767250   -500.656020
   12 Atom     -501.651586   -501.131238   -500.858364
   13 Atom     -501.157421   -500.882526   -500.743445
   14 Atom     -501.519386   -500.998491   -500.871046
   15 Atom     -812.252728   -812.143332   -810.836091
   16 Atom     -812.252731   -812.143321   -810.836091
   17 Atom       -2.067110     -1.665158     -1.630922
   18 Atom       -2.056308     -1.657642     -1.616537
   19 Atom       -2.065508     -1.660553     -1.637594
   20 Atom       -2.059674     -1.655281     -1.639098
   21 Atom       -2.056309     -1.657645     -1.616540
   22 Atom       -2.067110     -1.665159     -1.630923
   23 Atom       -2.065471     -1.660542     -1.637583
   24 Atom       -1.973843     -1.546604     -1.476548
   25 Atom       -1.974078     -1.547649     -1.476540
   26 Atom       -1.973883     -1.546619     -1.476562
   27 Atom       -1.974045     -1.547636     -1.476527
 -----------------------------------------------------
 -----------------------------------------------------
    Center         ---- Electric Field Gradient ----
                       ( tensor representation )
                   3XX-RR        3YY-RR        3ZZ-RR
 -----------------------------------------------------
    1 Atom        0.114524      0.115094     -0.229618
    2 Atom        0.159235      0.278615     -0.437850
    3 Atom        0.095602     -0.015614     -0.079988
    4 Atom       -0.038311      0.288371     -0.250060
    5 Atom        0.151560      0.097102     -0.248662
    6 Atom        0.246939      0.142814     -0.389753
    7 Atom       -1.526143      1.024828      0.501314
    8 Atom       -0.038320      0.288379     -0.250060
    9 Atom        0.151557      0.097105     -0.248662
   10 Atom        0.348891      0.183584     -0.532476
   11 Atom        0.095605     -0.015618     -0.079987
   12 Atom        0.159240      0.278615     -0.437856
   13 Atom        0.114529      0.115094     -0.229624
   14 Atom        0.246946      0.142798     -0.389744
   15 Atom       -0.427778     -0.480181      0.907958
   16 Atom       -0.427786     -0.480168      0.907955
   17 Atom       -0.194192      0.037384      0.156808
   18 Atom        0.118483     -0.278775      0.160292
   19 Atom        0.125999     -0.276290      0.150291
   20 Atom        0.129403     -0.274989      0.145586
   21 Atom        0.118482     -0.278773      0.160291
   22 Atom       -0.194198      0.037391      0.156807
   23 Atom        0.125989     -0.276272      0.150282
   24 Atom        0.118742     -0.307859      0.189117
   25 Atom       -0.223824      0.034274      0.189549
   26 Atom        0.118749     -0.307875      0.189126
   27 Atom       -0.223815      0.034273      0.189541
 -----------------------------------------------------
 -----------------------------------------------------
    Center         ---- Electric Field Gradient ----
                       ( tensor representation )
                   ----       Eigenvalues       ----
 -----------------------------------------------------
    1 Atom       -0.229618      0.045282      0.184337
    2 Atom       -0.437851      0.082488      0.355363
    3 Atom       -0.079988     -0.015617      0.095605
    4 Atom       -0.250060     -0.181444      0.431504
    5 Atom       -0.248662      0.095958      0.152704
    6 Atom       -0.389753      0.131166      0.258587
    7 Atom       -1.526143      0.501314      1.024829
    8 Atom       -0.250060     -0.181452      0.431511
    9 Atom       -0.248662      0.095960      0.152702
   10 Atom       -0.532476      0.183584      0.348892
   11 Atom       -0.079987     -0.015622      0.095608
   12 Atom       -0.437857      0.082491      0.355365
   13 Atom       -0.229624      0.045272      0.184352
   14 Atom       -0.389745      0.131150      0.258595
   15 Atom       -0.508678     -0.399282      0.907959
   16 Atom       -0.508684     -0.399273      0.907957
   17 Atom       -0.279380      0.122572      0.156808
   18 Atom       -0.279479      0.119187      0.160292
   19 Atom       -0.277623      0.127332      0.150291
   20 Atom       -0.274989      0.129403      0.145586
   21 Atom       -0.279477      0.119186      0.160292
   22 Atom       -0.279379      0.122572      0.156807
   23 Atom       -0.277606      0.127323      0.150283
   24 Atom       -0.308178      0.119061      0.189117
   25 Atom       -0.307989      0.118440      0.189549
   26 Atom       -0.308195      0.119069      0.189126
   27 Atom       -0.307976      0.118434      0.189542
 -----------------------------------------------------
 Calling FoFJK, ICntrl=      2127 FMM=F ISym2X=0 I1Cent= 0 IOpClX= 0 NMat=1 NMatS=1 NMatT=0.
 ***** Axes restored to original set *****
 -------------------------------------------------------------------
 Center     Atomic                   Forces (Hartrees/Bohr)
 Number     Number              X              Y              Z
 -------------------------------------------------------------------
      1        6          -0.073247788    0.046970411   -0.010099178
      2        6           0.021997530    0.009925064    0.002237590
      3        6           0.062387167   -0.037689547    0.008544116
      4        6          -0.089181845   -0.054131156   -0.008523753
      5        6          -0.009566868    0.039868296   -0.002426725
      6        6          -0.075626338    0.016178096   -0.009352086
      7        8           0.081037222   -0.115229452    0.013468771
      8        6           0.080261711    0.066820332    0.006983741
      9        6          -0.034179341    0.022291447   -0.004710885
     10        6          -0.032923495    0.046828889   -0.005451336
     11        6           0.014602743   -0.071806029    0.004244723
     12        6          -0.016597563   -0.017608828   -0.001276423
     13        6          -0.019668251    0.085182532   -0.005298558
     14        6           0.009915946    0.077276311   -0.001574995
     15        7          -0.052898322   -0.124697224   -0.001972907
     16        7           0.134311626    0.008960522    0.015227946
     17        1           0.011536659    0.000214080    0.001342379
     18        1          -0.005950834    0.010404920   -0.001039848
     19        1           0.009589528   -0.007705154    0.001383329
     20        1           0.006239696   -0.008876611    0.001041827
     21        1          -0.007769104    0.009103600   -0.001233192
     22        1          -0.004030623   -0.010894593   -0.000077063
     23        1           0.004033472   -0.011676393    0.000885755
     24        1          -0.024075973    0.022841368   -0.003569518
     25        1           0.032909564   -0.001288960    0.003875971
     26        1          -0.013397555    0.030452199   -0.002632196
     27        1          -0.009708965   -0.031714119    0.000002515
 -------------------------------------------------------------------
 Cartesian Forces:  Max     0.134311626 RMS     0.040087534

 GradGradGradGradGradGradGradGradGradGradGradGradGradGradGradGradGradGrad
 Berny optimization.
 FormGI is forming the generalized inverse of G from B-inverse, IUseBI=4.
 GSVD:  received Info=                   1 from GESDD.
 Internal  Forces:  Max     0.150622226 RMS     0.032589485
 Search for a local minimum.
 Step number   1 out of a maximum of  153
 All quantities printed in internal units (Hartrees-Bohrs-Radians)
 Mixed Optimization -- RFO/linear search
 Second derivative matrix not updated -- first step.
 ITU=  0
     Eigenvalues ---    0.02812   0.02813   0.02821   0.02826   0.02826
     Eigenvalues ---    0.02832   0.02832   0.02832   0.02836   0.02837
     Eigenvalues ---    0.02849   0.02849   0.02854   0.02855   0.02906
     Eigenvalues ---    0.02993   0.03029   0.03031   0.03058   0.03444
     Eigenvalues ---    0.03444   0.03444   0.03444   0.03700   0.16000
     Eigenvalues ---    0.16000   0.16000   0.16000   0.16000   0.16000
     Eigenvalues ---    0.16000   0.16000   0.16000   0.16000   0.16000
     Eigenvalues ---    0.22395   0.22459   0.23505   0.23517   0.23605
     Eigenvalues ---    0.24609   0.24661   0.25000   0.25000   0.25000
     Eigenvalues ---    0.25000   0.33253   0.33253   0.33312   0.33312
     Eigenvalues ---    0.33319   0.33320   0.33384   0.39972   0.39973
     Eigenvalues ---    0.39985   0.39986   0.44698   0.49745   0.49892
     Eigenvalues ---    0.49960   0.53057   0.53992   0.55905   0.56168
     Eigenvalues ---    0.56321   0.56332   0.56362   0.56365   0.56679
     Eigenvalues ---    0.56680   0.77084   0.77086   0.86142   0.90078
 RFO step:  Lambda=-1.80321692D-01 EMin= 2.81200390D-02
 Linear search not attempted -- first point.
 Maximum step size (   0.300) exceeded in Quadratic search.
    -- Step size scaled by   0.636
 Iteration  1 RMS(Cart)=  0.07028969 RMS(Int)=  0.00014034
 Iteration  2 RMS(Cart)=  0.00021853 RMS(Int)=  0.00003553
 Iteration  3 RMS(Cart)=  0.00000005 RMS(Int)=  0.00003553
 Variable       Old X    -DE/DX   Delta X   Delta X   Delta X     New X
                                 (Linear)    (Quad)   (Total)
    R1        2.53600   0.09283   0.00000   0.07894   0.07893   2.61493
    R2        2.53648   0.03240   0.00000   0.02698   0.02695   2.56344
    R3        2.08508  -0.01154   0.00000  -0.01429  -0.01429   2.07078
    R4        2.53804   0.07466   0.00000   0.06429   0.06431   2.60234
    R5        2.39527   0.11214   0.00000   0.07494   0.07494   2.47021
    R6        2.54267   0.04582   0.00000   0.03994   0.03996   2.58263
    R7        2.08610  -0.01191   0.00000  -0.01476  -0.01476   2.07134
    R8        2.54539   0.08787   0.00000   0.07606   0.07607   2.62146
    R9        2.32084   0.15062   0.00000   0.09101   0.09110   2.41194
   R10        2.54085   0.07989   0.00000   0.06778   0.06777   2.60862
   R11        2.53950   0.07232   0.00000   0.05623   0.05614   2.59564
   R12        2.08493  -0.01209   0.00000  -0.01497  -0.01497   2.06996
   R13        2.32085   0.15061   0.00000   0.09101   0.09109   2.41194
   R14        2.54537   0.08788   0.00000   0.07606   0.07608   2.62145
   R15        2.54267   0.04582   0.00000   0.03994   0.03996   2.58263
   R16        2.53951   0.07232   0.00000   0.05622   0.05614   2.59565
   R17        2.54082   0.07991   0.00000   0.06779   0.06778   2.60860
   R18        2.08383  -0.01090   0.00000  -0.01348  -0.01348   2.07035
   R19        2.53802   0.07467   0.00000   0.06430   0.06431   2.60233
   R20        2.08610  -0.01191   0.00000  -0.01476  -0.01476   2.07134
   R21        2.53601   0.09283   0.00000   0.07894   0.07893   2.61494
   R22        2.39526   0.11214   0.00000   0.07494   0.07494   2.47021
   R23        2.53645   0.03242   0.00000   0.02699   0.02697   2.56342
   R24        2.08508  -0.01154   0.00000  -0.01429  -0.01429   2.07079
   R25        2.08495  -0.01210   0.00000  -0.01498  -0.01498   2.06997
   R26        1.98292  -0.03293   0.00000  -0.03609  -0.03609   1.94683
   R27        1.98272  -0.03258   0.00000  -0.03569  -0.03569   1.94703
   R28        1.98290  -0.03292   0.00000  -0.03608  -0.03608   1.94682
   R29        1.98273  -0.03258   0.00000  -0.03570  -0.03570   1.94703
    A1        2.09308   0.00614   0.00000   0.00832   0.00829   2.10137
    A2        2.10524  -0.00443   0.00000  -0.00670  -0.00668   2.09856
    A3        2.08487  -0.00171   0.00000  -0.00163  -0.00161   2.08326
    A4        2.08963  -0.00759   0.00000  -0.01049  -0.01048   2.07914
    A5        2.09958   0.00106   0.00000   0.00121   0.00120   2.10079
    A6        2.09398   0.00653   0.00000   0.00928   0.00928   2.10325
    A7        2.10592  -0.00024   0.00000   0.00137   0.00140   2.10733
    A8        2.09192   0.00190   0.00000   0.00264   0.00263   2.09454
    A9        2.08534  -0.00166   0.00000  -0.00401  -0.00403   2.08132
   A10        2.08420   0.00770   0.00000   0.00787   0.00786   2.09206
   A11        2.09654   0.00322   0.00000   0.00051   0.00046   2.09700
   A12        2.10244  -0.01093   0.00000  -0.00838  -0.00831   2.09412
   A13        2.09222  -0.01101   0.00000  -0.01235  -0.01231   2.07991
   A14        2.05574   0.00578   0.00000  -0.00165  -0.00174   2.05400
   A15        2.13522   0.00523   0.00000   0.01401   0.01406   2.14928
   A16        2.10132   0.00500   0.00000   0.00528   0.00524   2.10656
   A17        2.07458   0.00025   0.00000   0.00250   0.00252   2.07710
   A18        2.10729  -0.00525   0.00000  -0.00778  -0.00776   2.09953
   A19        2.17858  -0.01679   0.00000  -0.00073  -0.00051   2.17808
   A20        2.10246  -0.01093   0.00000  -0.00839  -0.00832   2.09414
   A21        2.09654   0.00322   0.00000   0.00051   0.00046   2.09700
   A22        2.08418   0.00771   0.00000   0.00788   0.00786   2.09205
   A23        2.05572   0.00578   0.00000  -0.00165  -0.00174   2.05398
   A24        2.09222  -0.01101   0.00000  -0.01235  -0.01231   2.07991
   A25        2.13524   0.00523   0.00000   0.01400   0.01405   2.14930
   A26        2.07143   0.02708   0.00000   0.02080   0.02063   2.09205
   A27        2.10589  -0.01354   0.00000  -0.01040  -0.01032   2.09557
   A28        2.10587  -0.01354   0.00000  -0.01040  -0.01031   2.09556
   A29        2.10594  -0.00025   0.00000   0.00136   0.00139   2.10734
   A30        2.08534  -0.00166   0.00000  -0.00401  -0.00402   2.08132
   A31        2.09190   0.00190   0.00000   0.00265   0.00263   2.09453
   A32        2.08961  -0.00759   0.00000  -0.01048  -0.01048   2.07914
   A33        2.09399   0.00652   0.00000   0.00927   0.00927   2.10326
   A34        2.09958   0.00107   0.00000   0.00121   0.00121   2.10079
   A35        2.09306   0.00615   0.00000   0.00833   0.00830   2.10136
   A36        2.10521  -0.00443   0.00000  -0.00669  -0.00668   2.09854
   A37        2.08491  -0.00172   0.00000  -0.00164  -0.00162   2.08329
   A38        2.10135   0.00499   0.00000   0.00527   0.00523   2.10658
   A39        2.10730  -0.00525   0.00000  -0.00778  -0.00776   2.09954
   A40        2.07454   0.00026   0.00000   0.00251   0.00253   2.07707
   A41        2.11220   0.00311   0.00000   0.00581   0.00581   2.11801
   A42        2.09674   0.00459   0.00000   0.00857   0.00857   2.10531
   A43        2.07424  -0.00770   0.00000  -0.01438  -0.01438   2.05986
   A44        2.11218   0.00311   0.00000   0.00582   0.00582   2.11799
   A45        2.09675   0.00459   0.00000   0.00857   0.00857   2.10531
   A46        2.07426  -0.00770   0.00000  -0.01439  -0.01439   2.05988
    D1        0.00021   0.00000   0.00000  -0.00001  -0.00001   0.00020
    D2       -3.14137   0.00000   0.00000  -0.00001  -0.00001  -3.14138
    D3        3.14157   0.00000   0.00000   0.00001   0.00001   3.14157
    D4       -0.00001   0.00000   0.00000   0.00001   0.00001  -0.00001
    D5        0.00013   0.00000   0.00000  -0.00001  -0.00001   0.00012
    D6        3.14129   0.00001   0.00000   0.00002   0.00002   3.14132
    D7       -3.14123  -0.00001   0.00000  -0.00003  -0.00003  -3.14126
    D8       -0.00006   0.00000   0.00000   0.00001   0.00001  -0.00006
    D9       -0.00027   0.00001   0.00000   0.00002   0.00002  -0.00025
   D10        3.14152   0.00000   0.00000   0.00000   0.00000   3.14152
   D11        3.14131   0.00001   0.00000   0.00002   0.00002   3.14133
   D12       -0.00009   0.00000   0.00000   0.00000   0.00000  -0.00009
   D13       -3.14159   0.00000   0.00000   0.00000   0.00000  -3.14158
   D14        0.00001   0.00000   0.00000   0.00000   0.00000   0.00001
   D15        0.00002   0.00000   0.00000   0.00000   0.00000   0.00002
   D16       -3.14157   0.00000   0.00000   0.00000   0.00000  -3.14157
   D17       -0.00001   0.00000   0.00000   0.00000   0.00000  -0.00002
   D18       -3.14148  -0.00001   0.00000  -0.00002  -0.00002  -3.14149
   D19        3.14139   0.00000   0.00000   0.00002   0.00002   3.14140
   D20       -0.00008   0.00000   0.00000   0.00000   0.00000  -0.00008
   D21        0.00035  -0.00001   0.00000  -0.00002  -0.00002   0.00033
   D22       -3.14071  -0.00001   0.00000  -0.00004  -0.00004  -3.14075
   D23       -3.14137   0.00000   0.00000   0.00000   0.00000  -3.14138
   D24        0.00076  -0.00001   0.00000  -0.00003  -0.00003   0.00073
   D25        3.14049   0.00003   0.00000   0.00006   0.00006   3.14055
   D26       -0.00097   0.00002   0.00000   0.00004   0.00004  -0.00093
   D27       -0.00041   0.00001   0.00000   0.00003   0.00003  -0.00038
   D28       -3.14157   0.00000   0.00000  -0.00001  -0.00001  -3.14158
   D29        3.14062   0.00001   0.00000   0.00005   0.00005   3.14067
   D30       -0.00054   0.00000   0.00000   0.00001   0.00001  -0.00053
   D31        0.00014  -0.00001   0.00000  -0.00002  -0.00002   0.00012
   D32        3.14111   0.00001   0.00000   0.00004   0.00004   3.14115
   D33       -3.14090  -0.00001   0.00000  -0.00004  -0.00004  -3.14094
   D34        0.00007   0.00001   0.00000   0.00002   0.00002   0.00009
   D35        0.00021   0.00000   0.00000   0.00000   0.00000   0.00022
   D36       -3.14094  -0.00002   0.00000  -0.00005  -0.00005  -3.14099
   D37        0.00070  -0.00003   0.00000  -0.00006  -0.00006   0.00065
   D38       -3.14072  -0.00003   0.00000  -0.00007  -0.00007  -3.14079
   D39       -3.14132   0.00000   0.00000   0.00000   0.00000  -3.14133
   D40        0.00044  -0.00001   0.00000  -0.00001  -0.00001   0.00042
   D41        3.14062   0.00003   0.00000   0.00008   0.00008   3.14070
   D42       -0.00074   0.00002   0.00000   0.00006   0.00006  -0.00068
   D43       -0.00054   0.00001   0.00000   0.00002   0.00002  -0.00051
   D44        3.14128   0.00000   0.00000   0.00001   0.00001   3.14129
   D45       -0.00083   0.00001   0.00000   0.00006   0.00006  -0.00078
   D46        3.14138  -0.00001   0.00000  -0.00001  -0.00001   3.14138
   D47        3.14059   0.00001   0.00000   0.00007   0.00007   3.14065
   D48       -0.00038  -0.00001   0.00000   0.00000   0.00000  -0.00038
   D49       -0.00004   0.00000   0.00000   0.00000   0.00000  -0.00004
   D50        3.14136   0.00001   0.00000   0.00002   0.00002   3.14138
   D51       -3.14145   0.00000   0.00000  -0.00001  -0.00001  -3.14147
   D52       -0.00006   0.00000   0.00000   0.00001   0.00001  -0.00005
   D53        0.00023   0.00000   0.00000  -0.00001  -0.00001   0.00021
   D54       -3.14137   0.00000   0.00000  -0.00001  -0.00001  -3.14138
   D55        3.14159   0.00000   0.00000   0.00000   0.00000  -3.14159
   D56        0.00000   0.00000   0.00000   0.00001   0.00001   0.00000
   D57        0.00018   0.00000   0.00000   0.00000   0.00000   0.00018
   D58       -3.14146   0.00000   0.00000   0.00000   0.00000  -3.14146
   D59       -3.14141   0.00000   0.00000  -0.00001  -0.00001  -3.14142
   D60        0.00014   0.00000   0.00000  -0.00001  -0.00001   0.00013
   D61       -0.00003   0.00000   0.00000   0.00000   0.00000  -0.00003
   D62        3.14153   0.00000   0.00000   0.00000   0.00000   3.14153
   D63        3.14156   0.00000   0.00000   0.00000   0.00000   3.14156
   D64       -0.00007   0.00000   0.00000   0.00000   0.00000  -0.00007
   D65       -0.00028   0.00000   0.00000   0.00001   0.00001  -0.00026
[...]
    13  C   -0.006707   0.089374  -0.094875   0.604694  -0.199752  -0.000078
    14  C    0.024698  -0.051159   0.037939  -0.072275   0.433533   0.000389
    15  N   -0.003584   0.000133   0.000110  -0.000001  -0.000006   0.377381
    16  N   -0.000006   0.000133  -0.007580  -0.009858  -0.003584   0.000002
    17  H   -0.024986   0.002732   0.000023   0.000013  -0.000117   0.002469
    18  H    0.003532  -0.000716  -0.000406   0.000023   0.000040  -0.003904
    19  H    0.514698  -0.004885   0.000040  -0.000117   0.001531  -0.000642
    20  H   -0.004885   0.507048  -0.000716   0.002732  -0.004885   0.000017
    21  H    0.000040  -0.000716   0.518398  -0.004274   0.003532   0.000055
    22  H   -0.000117   0.002732  -0.004274   0.525706  -0.024986  -0.000003
    23  H    0.001531  -0.004885   0.003532  -0.024986   0.514698   0.000010
    24  H   -0.000642   0.000017   0.000055  -0.000003   0.000010   0.369108
    25  H    0.001437  -0.000052  -0.000038   0.000001  -0.000013  -0.017322
    26  H    0.000010   0.000017  -0.003904   0.002469  -0.000642  -0.000001
    27  H   -0.000013  -0.000052   0.003417  -0.003826   0.001437   0.000000
              25         26         27
     1  C   -0.021698  -0.000078   0.000013
     2  C   -0.040553  -0.000101   0.000023
     3  C    0.034552   0.000311  -0.000172
     4  C   -0.008113  -0.004548  -0.000757
     5  C   -0.001049   0.001342  -0.002086
     6  C    0.027717   0.000389  -0.000388
     7  O   -0.000426  -0.000026  -0.000426
     8  C   -0.000757   0.002556  -0.008113
     9  C   -0.002086   0.016841  -0.001049
    10  C   -0.003203   0.001667  -0.003203
    11  C   -0.000172   0.008808   0.034552
    12  C    0.000023  -0.052663  -0.040553
    13  C    0.000013   0.006696  -0.021698
    14  C   -0.000388  -0.005043   0.027717
    15  N    0.369368   0.000002   0.000000
    16  N    0.000000   0.377381   0.369368
    17  H   -0.003826  -0.000003   0.000001
    18  H    0.003417   0.000055  -0.000038
    19  H    0.001437   0.000010  -0.000013
    20  H   -0.000052   0.000017  -0.000052
    21  H   -0.000038  -0.003904   0.003417
    22  H    0.000001   0.002469  -0.003826
    23  H   -0.000013  -0.000642   0.001437
    24  H   -0.017322  -0.000001   0.000000
    25  H    0.368253   0.000000   0.000000
    26  H    0.000000   0.369108  -0.017322
    27  H    0.000000  -0.017322   0.368253
 Mulliken charges:
               1
     1  C    0.242925
     2  C   -0.435879
     3  C   -0.449207
     4  C   -0.690657
     5  C    0.664085
     6  C    0.073166
     7  O    0.015030
     8  C   -0.690657
     9  C    0.664084
    10  C    0.286364
    11  C   -0.449207
    12  C   -0.435879
    13  C    0.242925
    14  C    0.073166
    15  N   -0.299829
    16  N   -0.299829
    17  H    0.193978
    18  H    0.190512
    19  H    0.183964
    20  H    0.169300
    21  H    0.190512
    22  H    0.193978
    23  H    0.183964
    24  H    0.296680
    25  H    0.294916
    26  H    0.296680
    27  H    0.294916
 Sum of Mulliken charges =   1.00000
 Mulliken charges with hydrogens summed into heavy atoms:
               1
     1  C    0.436903
     2  C   -0.435879
     3  C   -0.258696
     4  C   -0.690657
     5  C    0.664085
     6  C    0.257130
     7  O    0.015030
     8  C   -0.690657
     9  C    0.664084
    10  C    0.455665
    11  C   -0.258695
    12  C   -0.435879
    13  C    0.436903
    14  C    0.257130
    15  N    0.291767
    16  N    0.291767
 Electronic spatial extent (au):  <R**2>=           4216.6121
 Charge=              1.0000 electrons
 Dipole moment (field-independent basis, Debye):
    X=              0.0000    Y=             -0.8352    Z=              0.0001  Tot=              0.8352
 Quadrupole moment (field-independent basis, Debye-Ang):
   XX=              2.1566   YY=            -65.1129   ZZ=            -97.1506
   XY=              0.0000   XZ=             -0.0003   YZ=             -0.0001
 Traceless Quadrupole moment (field-independent basis, Debye-Ang):
   XX=             55.5255   YY=            -11.7439   ZZ=            -43.7816
   XY=              0.0000   XZ=             -0.0003   YZ=             -0.0001
 Octapole moment (field-independent basis, Debye-Ang**2):
  XXX=              0.0000  YYY=            -15.7282  ZZZ=             -0.0003  XYY=              0.0000
  XXY=            -79.0441  XXZ=              0.0049  XZZ=              0.0000  YZZ=             -4.1305
  YYZ=              0.0004  XYZ=              0.0005
 Hexadecapole moment (field-independent basis, Debye-Ang**3):
 XXXX=          -1983.0350 YYYY=           -693.6035 ZZZZ=           -106.1979 XXXY=              0.0000
 XXXZ=             -0.0083 YYYX=              0.0000 YYYZ=             -0.0003 ZZZX=             -0.0002
 ZZZY=              0.0002 XXYY=           -601.4964 XXZZ=           -884.9306 YYZZ=           -181.7862
 XXYZ=             -0.0029 YYXZ=             -0.0010 ZZXY=              0.0000
 N-N= 9.992056006710D+02 E-N=-3.580465720218D+03  KE= 6.838377115518D+02

 **********************************************************************

            Electrostatic Properties Using The SCF Density

 **********************************************************************

       Atomic Center    1 is at   3.639545  0.884623  0.000019
       Atomic Center    2 is at   3.585707 -0.545596  0.000014
       Atomic Center    3 is at   2.335261 -1.192317 -0.000009
       Atomic Center    4 is at   1.187161 -0.430979 -0.000024
       Atomic Center    5 is at   1.213607  0.994610 -0.000016
       Atomic Center    6 is at   2.492526  1.622050  0.000005
       Atomic Center    7 is at   0.000000 -1.093158 -0.000061
       Atomic Center    8 is at  -1.187162 -0.430979 -0.000023
       Atomic Center    9 is at  -1.213607  0.994611 -0.000014
       Atomic Center   10 is at   0.000000  1.682511 -0.000014
       Atomic Center   11 is at  -2.335261 -1.192317 -0.000005
       Atomic Center   12 is at  -3.585707 -0.545596  0.000014
       Atomic Center   13 is at  -3.639545  0.884623  0.000017
       Atomic Center   14 is at  -2.492526  1.622050  0.000005
       Atomic Center   15 is at   4.733115 -1.256703  0.000035
       Atomic Center   16 is at  -4.733115 -1.256703  0.000030
       Atomic Center   17 is at   4.606006  1.374875  0.000034
       Atomic Center   18 is at   2.261292 -2.272641 -0.000016
       Atomic Center   19 is at   2.541401  2.704860  0.000010
       Atomic Center   20 is at   0.000000  2.768095 -0.000009
       Atomic Center   21 is at  -2.261292 -2.272641 -0.000007
       Atomic Center   22 is at  -4.606006  1.374875  0.000028
       Atomic Center   23 is at  -2.541401  2.704860  0.000012
       Atomic Center   24 is at   4.728520 -2.263964  0.000023
       Atomic Center   25 is at   5.630482 -0.799508  0.000047
       Atomic Center   26 is at  -4.728520 -2.263964  0.000037
       Atomic Center   27 is at  -5.630482 -0.799508  0.000059
 -----------------------------------------------------------------

              Electrostatic Properties (Atomic Units)

 -----------------------------------------------------------------
    Center     Electric         -------- Electric Field --------
               Potential          X             Y             Z
 -----------------------------------------------------------------
    1 Atom    -14.635505      0.001567      0.001583      0.000000
    2 Atom    -14.570366     -0.006933      0.005370      0.000000
    3 Atom    -14.638109      0.000943     -0.003511      0.000000
    4 Atom    -14.552154      0.013434      0.007452      0.000000
    5 Atom    -14.617485      0.001725      0.002247      0.000000
    6 Atom    -14.625713      0.000305      0.001702      0.000000
    7 Atom    -22.155656      0.000000     -0.047337     -0.000002
    8 Atom    -14.552154     -0.013434      0.007452      0.000000
    9 Atom    -14.617485     -0.001725      0.002247      0.000000
   10 Atom    -14.602130      0.000000      0.001977      0.000000
   11 Atom    -14.638109     -0.000943     -0.003511      0.000000
   12 Atom    -14.570366      0.006933      0.005370      0.000000
   13 Atom    -14.635505     -0.001567      0.001583      0.000000
   14 Atom    -14.625713     -0.000305      0.001702      0.000000
   15 Atom    -18.232206      0.003085     -0.001957      0.000001
   16 Atom    -18.232206     -0.003085     -0.001957     -0.000001
   17 Atom     -0.968424      0.017063      0.009002      0.000000
   18 Atom     -0.961094     -0.001487     -0.019432      0.000000
   19 Atom     -0.966399      0.001034      0.019343      0.000000
   20 Atom     -0.948180      0.000000      0.019339      0.000000
   21 Atom     -0.961094      0.001487     -0.019432      0.000000
   22 Atom     -0.968424     -0.017063      0.009002      0.000000
   23 Atom     -0.966399     -0.001034      0.019343      0.000000
   24 Atom     -0.883399      0.000137     -0.023092      0.000000
   25 Atom     -0.883350      0.020734      0.010246      0.000000
   26 Atom     -0.883399     -0.000137     -0.023092      0.000000
   27 Atom     -0.883350     -0.020734      0.010246      0.000001
 -----------------------------------------------------------------
 -----------------------------------------------------
    Center         ---- Electric Field Gradient ----
                     XX            YY            ZZ
 -----------------------------------------------------
    1 Atom     -500.629269   -500.751445   -501.013776
    2 Atom     -500.820792   -500.695299   -501.333015
    3 Atom     -500.575813   -500.546837   -500.706723
    4 Atom     -501.054891   -500.714798   -501.160655
    5 Atom     -500.539337   -500.622776   -500.853102
    6 Atom     -500.832515   -500.820407   -501.373762
    7 Atom    -1238.207602  -1235.803475  -1235.557492
    8 Atom     -501.054891   -500.714798   -501.160655
    9 Atom     -500.539337   -500.622776   -500.853102
   10 Atom     -500.955039   -500.988996   -501.713488
   11 Atom     -500.575813   -500.546837   -500.706723
   12 Atom     -500.820792   -500.695299   -501.333015
   13 Atom     -500.629269   -500.751444   -501.013776
   14 Atom     -500.832516   -500.820407   -501.373762
   15 Atom     -812.100446   -812.040337   -810.695917
   16 Atom     -812.100446   -812.040337   -810.695917
   17 Atom       -2.047080     -1.773488     -1.650280
   18 Atom       -1.669729     -2.122319     -1.631912
   19 Atom       -1.680049     -2.134833     -1.656782
   20 Atom       -1.673336     -2.124080     -1.656974
   21 Atom       -1.669729     -2.122319     -1.631912
   22 Atom       -2.047080     -1.773488     -1.650280
   23 Atom       -1.680049     -2.134833     -1.656782
   24 Atom       -1.610720     -2.184661     -1.531720
   25 Atom       -2.063640     -1.731337     -1.530817
   26 Atom       -1.610720     -2.184661     -1.531720
   27 Atom       -2.063640     -1.731337     -1.530817
 -----------------------------------------------------
 -----------------------------------------------------
    Center         ---- Electric Field Gradient ----
                     XY            XZ            YZ
 -----------------------------------------------------
    1 Atom       -0.035518      0.000006      0.000000
    2 Atom        0.134356      0.000009      0.000005
    3 Atom       -0.007109      0.000002      0.000001
    4 Atom       -0.303852     -0.000006     -0.000001
    5 Atom       -0.001796      0.000003      0.000003
    6 Atom       -0.057792      0.000008      0.000002
    7 Atom        0.000000      0.000002     -0.000065
    8 Atom        0.303852      0.000005     -0.000002
    9 Atom        0.001796     -0.000003      0.000003
   10 Atom        0.000000      0.000000      0.000003
   11 Atom        0.007109     -0.000002      0.000001
   12 Atom       -0.134356     -0.000010      0.000002
   13 Atom        0.035518     -0.000005      0.000000
   14 Atom        0.057792     -0.000007      0.000002
   15 Atom        0.060340     -0.000022     -0.000008
   16 Atom       -0.060340      0.000033      0.000000
   17 Atom       -0.181108     -0.000006     -0.000003
   18 Atom       -0.027045     -0.000001     -0.000003
   19 Atom       -0.018518      0.000000     -0.000002
   20 Atom        0.000000      0.000000     -0.000002
   21 Atom        0.027045      0.000001     -0.000001
   22 Atom        0.181108      0.000005     -0.000002
   23 Atom        0.018518      0.000000     -0.000003
   24 Atom       -0.005726     -0.000001     -0.000008
   25 Atom       -0.233813     -0.000007     -0.000003
   26 Atom        0.005726      0.000002      0.000004
   27 Atom        0.233813      0.000017     -0.000008
 -----------------------------------------------------
 -----------------------------------------------------
    Center         ---- Electric Field Gradient ----
                   ----       Eigenvalues       ----
 -----------------------------------------------------
    1 Atom     -501.013776   -500.761020   -500.619694
    2 Atom     -501.333015   -500.906332   -500.609760
    3 Atom     -500.706723   -500.577463   -500.545187
    4 Atom     -501.233042   -501.160655   -500.536646
    5 Atom     -500.853102   -500.622815   -500.539299
    6 Atom     -501.373762   -500.884570   -500.768352
    7 Atom    -1238.207602  -1235.803475  -1235.557492
    8 Atom     -501.233043   -501.160655   -500.536647
    9 Atom     -500.853102   -500.622815   -500.539299
   10 Atom     -501.713488   -500.988996   -500.955039
   11 Atom     -500.706723   -500.577463   -500.545187
   12 Atom     -501.333015   -500.906332   -500.609760
   13 Atom     -501.013776   -500.761019   -500.619694
   14 Atom     -501.373762   -500.884570   -500.768353
   15 Atom     -812.137802   -812.002981   -810.695917
   16 Atom     -812.137802   -812.002981   -810.695917
   17 Atom       -2.137249     -1.683319     -1.650280
   18 Atom       -2.123929     -1.668118     -1.631912
   19 Atom       -2.135586     -1.679296     -1.656782
   20 Atom       -2.124080     -1.673336     -1.656974
   21 Atom       -2.123929     -1.668118     -1.631912
   22 Atom       -2.137249     -1.683319     -1.650280
   23 Atom       -2.135586     -1.679296     -1.656782
   24 Atom       -2.184718     -1.610663     -1.531720
   25 Atom       -2.184324     -1.610652     -1.530817
   26 Atom       -2.184718     -1.610663     -1.531720
   27 Atom       -2.184324     -1.610652     -1.530817
 -----------------------------------------------------
 -----------------------------------------------------
    Center         ---- Electric Field Gradient ----
                       ( tensor representation )
                   3XX-RR        3YY-RR        3ZZ-RR
 -----------------------------------------------------
    1 Atom        0.168894      0.046719     -0.215613
    2 Atom        0.128910      0.254403     -0.383313
    3 Atom        0.033978      0.062954     -0.096932
    4 Atom       -0.078109      0.261983     -0.183874
    5 Atom        0.132401      0.048962     -0.181363
    6 Atom        0.176379      0.188488     -0.364867
    7 Atom       -1.684746      0.719382      0.965364
    8 Atom       -0.078110      0.261983     -0.183874
    9 Atom        0.132401      0.048962     -0.181363
   10 Atom        0.264135      0.230178     -0.494313
   11 Atom        0.033978      0.062954     -0.096932
   12 Atom        0.128910      0.254403     -0.383313
   13 Atom        0.168894      0.046719     -0.215613
   14 Atom        0.176379      0.188488     -0.364867
   15 Atom       -0.488212     -0.428104      0.916317
   16 Atom       -0.488212     -0.428104      0.916317
   17 Atom       -0.223464      0.050128      0.173336
   18 Atom        0.138258     -0.314332      0.176074
   19 Atom        0.143839     -0.310945      0.167106
   20 Atom        0.144794     -0.305950      0.161156
   21 Atom        0.138258     -0.314332      0.176074
   22 Atom       -0.223464      0.050128      0.173336
   23 Atom        0.143839     -0.310945      0.167106
   24 Atom        0.164980     -0.408961      0.243980
   25 Atom       -0.288375      0.043928      0.244447
   26 Atom        0.164980     -0.408961      0.243980
   27 Atom       -0.288375      0.043928      0.244447
 -----------------------------------------------------
 -----------------------------------------------------
    Center         ---- Electric Field Gradient ----
                       ( tensor representation )
                   ----       Eigenvalues       ----
 -----------------------------------------------------
    1 Atom       -0.215613      0.037144      0.178469
    2 Atom       -0.383313      0.043371      0.339942
    3 Atom       -0.096932      0.032328      0.064604
    4 Atom       -0.256261     -0.183874      0.440135
    5 Atom       -0.181363      0.048924      0.132440
    6 Atom       -0.364867      0.124325      0.240542
    7 Atom       -1.684746      0.719382      0.965364
    8 Atom       -0.256261     -0.183874      0.440135
    9 Atom       -0.181363      0.048924      0.132440
   10 Atom       -0.494313      0.230178      0.264135
   11 Atom       -0.096932      0.032328      0.064604
   12 Atom       -0.383313      0.043370      0.339942
   13 Atom       -0.215613      0.037144      0.178469
   14 Atom       -0.364867      0.124325      0.240542
   15 Atom       -0.525569     -0.390748      0.916317
   16 Atom       -0.525569     -0.390748      0.916317
   17 Atom       -0.313633      0.140297      0.173336
   18 Atom       -0.315943      0.139868      0.176074
   19 Atom       -0.311698      0.144592      0.167106
   20 Atom       -0.305950      0.144794      0.161156
   21 Atom       -0.315943      0.139868      0.176074
   22 Atom       -0.313633      0.140297      0.173336
   23 Atom       -0.311698      0.144592      0.167106
   24 Atom       -0.409018      0.165038      0.243980
   25 Atom       -0.409060      0.164612      0.244447
   26 Atom       -0.409018      0.165038      0.243980
   27 Atom       -0.409060      0.164612      0.244447
 -----------------------------------------------------

 Test job not archived.
 1|1|UNPC-NP-ALMACH|FOpt|RB3LYP|6-311++G(d,p)|C13H11N2O1(1+)|HERA|07-Au
 g-2018|0||# RB3LYP/6-311++G** Opt Test prop=EFG||C13N2H11O||1,1|C,-3.7
 187203437,-1.0185536568,-0.3964711083|C,-2.8559508608,-2.152015362,-0.
 2574776873|C,-1.4706646505,-1.9541274273,-0.10357565|C,-0.9748281244,-
 0.6689281933,-0.090181377|C,-1.8127119875,0.4766348049,-0.2267080433|C
 ,-3.2100664447,0.2465476913,-0.3809008447|O,0.3679448839,-0.5202956411
 ,0.0604946704|C,0.9522790919,0.7067874962,0.0860955088|C,0.1573235904,
 1.8829959002,-0.0465050673|C,-1.2216481168,1.7399869202,-0.2015347823|
 C,2.3201416899,0.7520381144,0.2431765436|C,2.9646908515,2.0032016297,0
 .2749534631|C,2.189316448,3.1990526909,0.1439563902|C,0.8360253174,3.1
 349558445,-0.0107928938|N,-3.379991763,-3.3959092116,-0.2755682139|N,4
 .3032243971,2.0889556351,0.4272437796|H,-4.7839039041,-1.1793133114,-0
 .5145130681|H,-0.7919378902,-2.7909980279,0.0038898161|H,-3.8698494044
 ,1.0999824016,-0.4867364193|H,-1.8433505602,2.6239996685,-0.3040035809
 |H,2.8787954718,-0.1705502719,0.3396537623|H,2.6929787188,4.1582550841
 ,0.1694257083|H,0.2555811583,4.0450284218,-0.1093728942|H,-2.799415860
 6,-4.2134787446,-0.180143702|H,-4.3701655733,-3.5435533808,-0.38535613
 06|H,4.8763434578,1.2660605527,0.5219666094|H,4.7697404073,2.981205372
 7,0.4506862113||Version=EM64W-G09RevD.01|State=1-A|HF=-686.7246751|RMS
 D=9.398e-009|RMSF=5.956e-005|Dipole=0.1881867,-0.2675792,0.0309587|Qua
 drupole=23.8999799,8.0314451,-31.931425,23.6136159,5.7363978,1.3452955
 |PG=C01 [X(C13H11N2O1)]||@


 HERE WE GO......
 SLIDING DOWN THE RAZOR BLADE OF LIFE......
                                 TOM LEHRER
 Job cpu time:       0 days  0 hours 19 minutes 30.0 seconds.
 File lengths (MBytes):  RWF=     83 Int=      0 D2E=      0 Chk=     15 Scr=      1
 Normal termination of Gaussian 09 at Tue Aug 07 02:52:47 2018.
