 Entering Link 1 = C:\G09W\l1.exe PID=     19672.
  
 Copyright (c) 1988,1990,1992,1993,1995,1998,2003,2009,2013,
            Gaussian, Inc.  All Rights Reserved.
  
 This is part of the Gaussian(R) 09 program.  It is based on
 the Gaussian(R) 03 system (copyright 2003, Gaussian, Inc.),
 the Gaussian(R) 98 system (copyright 1998, Gaussian, Inc.),
 the Gaussian(R) 94 system (copyright 1995, Gaussian, Inc.),
 the Gaussian 92(TM) system (copyright 1992, Gaussian, Inc.),
 the Gaussian 90(TM) system (copyright 1990, Gaussian, Inc.),
 the Gaussian 88(TM) system (copyright 1988, Gaussian, Inc.),
 the Gaussian 86(TM) system (copyright 1986, Carnegie Mellon
 University), and the Gaussian 82(TM) system (copyright 1983,
 Carnegie Mellon University). Gaussian is a federally registered
 trademark of Gaussian, Inc.
  
 This software contains proprietary and confidential information,
 including trade secrets, belonging to Gaussian, Inc.
  
 This software is provided under written license and may be
 used, copied, transmitted, or stored only in accord with that
 written license.
  
 The following legend is applicable only to US Government
 contracts under FAR:
  
                    RESTRICTED RIGHTS LEGEND
  
 Use, reproduction and disclosure by the US Government is
 subject to restrictions as set forth in subparagraphs (a)
 and (c) of the Commercial Computer Software - Restricted
 Rights clause in FAR 52.227-19.
  
 Gaussian, Inc.
 340 Quinnipiac St., Bldg. 40, Wallingford CT 06492
  
  
 ---------------------------------------------------------------
 Warning -- This program may not be used in any manner that
 competes with the business of Gaussian, Inc. or will provide
 assistance to any competitor of Gaussian, Inc.  The licensee
 of this program is prohibited from giving any competitor of
 Gaussian, Inc. access to this program.  By using this program,
 the user acknowledges that Gaussian, Inc. is engaged in the
 business of creating and licensing software in the field of
 computational chemistry and represents and warrants to the
 licensee that it is not a competitor of Gaussian, Inc. and that
 it will not use this program in any manner prohibited above.
 ---------------------------------------------------------------
  

 Cite this work as:
 Gaussian 09, Revision D.01,
 M. J. Frisch, G. W. Trucks, H. B. Schlegel, G. E. Scuseria, 
 M. A. Robb, J. R. Cheeseman, G. Scalmani, V. Barone, B. Mennucci, 
 G. A. Petersson, H. Nakatsuji, M. Caricato, X. Li, H. P. Hratchian, 
 A. F. Izmaylov, J. Bloino, G. Zheng, J. L. Sonnenberg, M. Hada, 
 M. Ehara, K. Toyota, R. Fukuda, J. Hasegawa, M. Ishida, T. Nakajima, 
 Y. Honda, O. Kitao, H. Nakai, T. Vreven, J. A. Montgomery, Jr., 
 J. E. Peralta, F. Ogliaro, M. Bearpark, J. J. Heyd, E. Brothers, 
 K. N. Kudin, V. N. Staroverov, T. Keith, R. Kobayashi, J. Normand, 
 K. Raghavachari, A. Rendell, J. C. Burant, S. S. Iyengar, J. Tomasi, 
 M. Cossi, N. Rega, J. M. Millam, M. Klene, J. E. Knox, J. B. Cross, 
 V. Bakken, C. Adamo, J. Jaramillo, R. Gomperts, R. E. Stratmann, 
 O. Yazyev, A. J. Austin, R. Cammi, C. Pomelli, J. W. Ochterski, 
 R. L. Martin, K. Morokuma, V. G. Zakrzewski, G. A. Voth, 
 P. Salvador, J. J. Dannenberg, S. Dapprich, A. D. Daniels, 
 O. Farkas, J. B. Foresman, J. V. Ortiz, J. Cioslowski, 
 and D. J. Fox, Gaussian, Inc., Wallingford CT, 2013.
 
 ******************************************
 Gaussian 09:  EM64W-G09RevD.01 13-Apr-2013
                04-Aug-2018 
 ******************************************
 %Chk=Anth_284.chk
 %Mem=64GB
 %NProcShared=20
 Will use up to   20 processors via shared memory.
 -------------------------------------
 # RB3LYP/6-311++G** Opt Test prop=EFG
 -------------------------------------
 1/14=-1,18=20,19=15,26=3,38=1/1,3;
 2/9=110,12=2,17=6,18=5,40=1/2;
 3/5=4,6=6,7=1111,11=2,16=1,25=1,30=1,71=1,74=-5,116=1/1,2,3;
 4//1;
 5/5=2,38=5/2;
 6/7=2,8=2,9=2,10=2,14=1,28=1/1,2;
 7//1,2,3,16;
 1/14=-1,18=20,19=15,26=3/3(2);
 2/9=110/2;
 99//99;
 2/9=110/2;
 3/5=4,6=6,7=1111,11=2,16=1,25=1,30=1,71=1,74=-5,116=1/1,2,3;
 4/5=5,16=3,69=1/1;
 5/5=2,38=5/2;
 7//1,2,3,16;
 1/14=-1,18=20,19=15,26=3/3(-5);
 2/9=110/2;
 6/7=2,8=2,9=2,10=2,14=1,19=2,28=1/1,2;
 99/9=1/99;
 -------
 C5NH14O
 -------
 Symbolic Z-matrix:
 Charge =  1 Multiplicity = 1
 O                    -2.01224  -3.17319  -0.0025 
 C                    -0.76115  -2.51482  -0.00094 
 C                    -0.98943  -1.00568  -0.00154 
 C                     0.33088  -0.21904  -0.00043 
 C                     0.08959   1.29963  -0.0008 
 C                     1.40649   2.08594  -0.00028 
 N                     1.02921   3.54011  -0.0006 
 H                    -1.88385  -4.12468  -0.002 
 H                    -0.20938  -2.84557   0.90705 
 H                    -0.20695  -2.84592  -0.90731 
 H                    -1.58708  -0.72528  -0.9017 
 H                    -1.5889   -0.72484   0.89728 
 H                     0.92807  -0.49936   0.89965 
 H                     0.92963  -0.49954  -0.89942 
 H                    -0.50864   1.57839  -0.90115 
 H                    -0.50954   1.57866   0.89888 
 H                     2.01146   1.86359   0.90809 
 H                     2.01224   1.86341  -0.90809 
 H                     1.89535   4.12468  -0.00041 
 H                     0.46467   3.75317  -0.85377 
 H                     0.46414   3.75341   0.85216 
 

 GradGradGradGradGradGradGradGradGradGradGradGradGradGradGradGradGradGrad
 Berny optimization.
 Initialization pass.
                           ----------------------------
                           !    Initial Parameters    !
                           ! (Angstroms and Degrees)  !
 --------------------------                            --------------------------
 ! Name  Definition              Value          Derivative Info.                !
 --------------------------------------------------------------------------------
 ! R1    R(1,2)                  1.4137         estimate D2E/DX2                !
 ! R2    R(1,8)                  0.9601         estimate D2E/DX2                !
 ! R3    R(2,3)                  1.5263         estimate D2E/DX2                !
 ! R4    R(2,9)                  1.1128         estimate D2E/DX2                !
 ! R5    R(2,10)                 1.1128         estimate D2E/DX2                !
 ! R6    R(3,4)                  1.5369         estimate D2E/DX2                !
 ! R7    R(3,11)                 1.1163         estimate D2E/DX2                !
 ! R8    R(3,12)                 1.1163         estimate D2E/DX2                !
 ! R9    R(4,5)                  1.5377         estimate D2E/DX2                !
 ! R10   R(4,13)                 1.116          estimate D2E/DX2                !
 ! R11   R(4,14)                 1.116          estimate D2E/DX2                !
 ! R12   R(5,6)                  1.5338         estimate D2E/DX2                !
 ! R13   R(5,15)                 1.1163         estimate D2E/DX2                !
 ! R14   R(5,16)                 1.1163         estimate D2E/DX2                !
 ! R15   R(6,7)                  1.5023         estimate D2E/DX2                !
 ! R16   R(6,17)                 1.1138         estimate D2E/DX2                !
 ! R17   R(6,18)                 1.1138         estimate D2E/DX2                !
 ! R18   R(7,19)                 1.0449         estimate D2E/DX2                !
 ! R19   R(7,20)                 1.045          estimate D2E/DX2                !
 ! R20   R(7,21)                 1.045          estimate D2E/DX2                !
 ! A1    A(2,1,8)              110.0706         estimate D2E/DX2                !
 ! A2    A(1,2,3)              109.1534         estimate D2E/DX2                !
 ! A3    A(1,2,9)              107.5348         estimate D2E/DX2                !
 ! A4    A(1,2,10)             107.5337         estimate D2E/DX2                !
 ! A5    A(3,2,9)              111.6147         estimate D2E/DX2                !
 ! A6    A(3,2,10)             111.6151         estimate D2E/DX2                !
 ! A7    A(9,2,10)             109.2215         estimate D2E/DX2                !
 ! A8    A(2,3,4)              112.1851         estimate D2E/DX2                !
 ! A9    A(2,3,11)             109.1932         estimate D2E/DX2                !
 ! A10   A(2,3,12)             109.1932         estimate D2E/DX2                !
 ! A11   A(4,3,11)             109.3872         estimate D2E/DX2                !
 ! A12   A(4,3,12)             109.3898         estimate D2E/DX2                !
 ! A13   A(11,3,12)            107.3722         estimate D2E/DX2                !
 ! A14   A(3,4,5)              111.7591         estimate D2E/DX2                !
 ! A15   A(3,4,13)             109.374          estimate D2E/DX2                !
 ! A16   A(3,4,14)             109.3716         estimate D2E/DX2                !
 ! A17   A(5,4,13)             109.4048         estimate D2E/DX2                !
 ! A18   A(5,4,14)             109.4049         estimate D2E/DX2                !
 ! A19   A(13,4,14)            107.4262         estimate D2E/DX2                !
 ! A20   A(4,5,6)              111.8136         estimate D2E/DX2                !
 ! A21   A(4,5,15)             109.3229         estimate D2E/DX2                !
 ! A22   A(4,5,16)             109.3223         estimate D2E/DX2                !
 ! A23   A(6,5,15)             109.412          estimate D2E/DX2                !
 ! A24   A(6,5,16)             109.4137         estimate D2E/DX2                !
 ! A25   A(15,5,16)            107.4552         estimate D2E/DX2                !
 ! A26   A(5,6,7)              106.2968         estimate D2E/DX2                !
 ! A27   A(5,6,17)             111.3629         estimate D2E/DX2                !
 ! A28   A(5,6,18)             111.361          estimate D2E/DX2                !
 ! A29   A(7,6,17)             109.2573         estimate D2E/DX2                !
 ! A30   A(7,6,18)             109.2569         estimate D2E/DX2                !
 ! A31   A(17,6,18)            109.2346         estimate D2E/DX2                !
 ! A32   A(6,7,19)             109.4714         estimate D2E/DX2                !
 ! A33   A(6,7,20)             109.4628         estimate D2E/DX2                !
 ! A34   A(6,7,21)             109.4631         estimate D2E/DX2                !
 ! A35   A(19,7,20)            109.5045         estimate D2E/DX2                !
 ! A36   A(19,7,21)            109.5045         estimate D2E/DX2                !
 ! A37   A(20,7,21)            109.421          estimate D2E/DX2                !
 ! D1    D(8,1,2,3)           -179.9904         estimate D2E/DX2                !
 ! D2    D(8,1,2,9)            -58.7457         estimate D2E/DX2                !
 ! D3    D(8,1,2,10)            58.765          estimate D2E/DX2                !
 ! D4    D(1,2,3,4)           -179.9786         estimate D2E/DX2                !
 ! D5    D(1,2,3,11)           -58.5428         estimate D2E/DX2                !
 ! D6    D(1,2,3,12)            58.5823         estimate D2E/DX2                !
 ! D7    D(9,2,3,4)             61.2914         estimate D2E/DX2                !
 ! D8    D(9,2,3,11)          -177.2729         estimate D2E/DX2                !
 ! D9    D(9,2,3,12)           -60.1477         estimate D2E/DX2                !
 ! D10   D(10,2,3,4)           -61.2497         estimate D2E/DX2                !
 ! D11   D(10,2,3,11)           60.186          estimate D2E/DX2                !
 ! D12   D(10,2,3,12)          177.3112         estimate D2E/DX2                !
 ! D13   D(2,3,4,5)           -179.99           estimate D2E/DX2                !
 ! D14   D(2,3,4,13)           -58.6874         estimate D2E/DX2                !
 ! D15   D(2,3,4,14)            58.709          estimate D2E/DX2                !
 ! D16   D(11,3,4,5)            58.6855         estimate D2E/DX2                !
 ! D17   D(11,3,4,13)          179.9881         estimate D2E/DX2                !
 ! D18   D(11,3,4,14)          -62.6155         estimate D2E/DX2                !
 ! D19   D(12,3,4,5)           -58.6637         estimate D2E/DX2                !
 ! D20   D(12,3,4,13)           62.6389         estimate D2E/DX2                !
 ! D21   D(12,3,4,14)         -179.9647         estimate D2E/DX2                !
 ! D22   D(3,4,5,6)           -179.9764         estimate D2E/DX2                !
 ! D23   D(3,4,5,15)           -58.6638         estimate D2E/DX2                !
 ! D24   D(3,4,5,16)            58.7094         estimate D2E/DX2                !
 ! D25   D(13,4,5,6)            58.7388         estimate D2E/DX2                !
 ! D26   D(13,4,5,15)         -179.9486         estimate D2E/DX2                !
 ! D27   D(13,4,5,16)          -62.5753         estimate D2E/DX2                !
 ! D28   D(14,4,5,6)           -58.6946         estimate D2E/DX2                !
 ! D29   D(14,4,5,15)           62.6179         estimate D2E/DX2                !
 ! D30   D(14,4,5,16)          179.9912         estimate D2E/DX2                !
 ! D31   D(4,5,6,7)           -179.996          estimate D2E/DX2                !
 ! D32   D(4,5,6,17)           -61.0932         estimate D2E/DX2                !
 ! D33   D(4,5,6,18)            61.1028         estimate D2E/DX2                !
 ! D34   D(15,5,6,7)            58.743          estimate D2E/DX2                !
 ! D35   D(15,5,6,17)          177.6458         estimate D2E/DX2                !
 ! D36   D(15,5,6,18)          -60.1582         estimate D2E/DX2                !
 ! D37   D(16,5,6,7)           -58.7346         estimate D2E/DX2                !
 ! D38   D(16,5,6,17)           60.1681         estimate D2E/DX2                !
 ! D39   D(16,5,6,18)         -177.6359         estimate D2E/DX2                !
 ! D40   D(5,6,7,19)          -179.9916         estimate D2E/DX2                !
 ! D41   D(5,6,7,20)           -59.9559         estimate D2E/DX2                !
 ! D42   D(5,6,7,21)            59.9724         estimate D2E/DX2                !
 ! D43   D(17,6,7,19)           59.7331         estimate D2E/DX2                !
 ! D44   D(17,6,7,20)          179.7688         estimate D2E/DX2                !
 ! D45   D(17,6,7,21)          -60.3029         estimate D2E/DX2                !
 ! D46   D(18,6,7,19)          -59.7188         estimate D2E/DX2                !
 ! D47   D(18,6,7,20)           60.3169         estimate D2E/DX2                !
 ! D48   D(18,6,7,21)         -179.7547         estimate D2E/DX2                !
 --------------------------------------------------------------------------------
 Trust Radius=3.00D-01 FncErr=1.00D-07 GrdErr=1.00D-06
 Number of steps in this run=    115 maximum allowed number of steps=    126.
 GradGradGradGradGradGradGradGradGradGradGradGradGradGradGradGradGradGrad

                          Input orientation:                          
 ---------------------------------------------------------------------
 Center     Atomic      Atomic             Coordinates (Angstroms)
 Number     Number       Type             X           Y           Z
 ---------------------------------------------------------------------
      1          8           0       -2.012235   -3.173189   -0.002504
      2          6           0       -0.761148   -2.514818   -0.000939
      3          6           0       -0.989427   -1.005683   -0.001536
      4          6           0        0.330876   -0.219037   -0.000433
      5          6           0        0.089590    1.299627   -0.000795
      6          6           0        1.406489    2.085944   -0.000282
      7          7           0        1.029210    3.540111   -0.000598
      8          1           0       -1.883851   -4.124679   -0.001998
      9          1           0       -0.209376   -2.845567    0.907051
     10          1           0       -0.206945   -2.845922   -0.907310
     11          1           0       -1.587081   -0.725280   -0.901703
     12          1           0       -1.588899   -0.724844    0.897283
     13          1           0        0.928072   -0.499358    0.899652
     14          1           0        0.929632   -0.499541   -0.899424
     15          1           0       -0.508642    1.578388   -0.901149
     16          1           0       -0.509542    1.578662    0.898875
     17          1           0        2.011457    1.863590    0.908090
     18          1           0        2.012235    1.863405   -0.908090
     19          1           0        1.895349    4.124679   -0.000411
     20          1           0        0.464668    3.753169   -0.853767
     21          1           0        0.464139    3.753407    0.852161
 ---------------------------------------------------------------------
                    Distance matrix (angstroms):
                    1          2          3          4          5
     1  O    0.000000
     2  C    1.413744   0.000000
     3  C    2.396710   1.526303   0.000000
     4  C    3.770569   2.542268   1.536884   0.000000
     5  C    4.942039   3.908164   2.545335   1.537712   0.000000
     6  C    6.272652   5.085829   3.911339   2.543596   1.533792
     7  N    7.370128   6.314075   4.973846   3.823462   2.429538
     8  H    0.960112   1.962681   3.244708   4.489884   5.772137
     9  H    2.045709   1.112786   2.195264   2.830911   4.253963
    10  H    2.045690   1.112780   2.195264   2.830583   4.253855
    11  H    2.642267   2.167023   1.116296   2.178791   2.779048
    12  H    2.642579   2.167021   1.116294   2.178823   2.778912
    13  H    4.075373   2.779678   2.178373   1.115964   2.179496
    14  H    4.075223   2.779812   2.178341   1.115964   2.179498
    15  H    5.064172   4.198627   2.778107   2.178719   1.116345
    16  H    5.064648   4.198756   2.778465   2.178710   1.116345
    17  H    6.510639   5.261571   4.250347   2.826146   2.199477
    18  H    6.510278   5.261503   4.250115   2.826194   2.199453
    19  H    8.278170   7.151216   5.885792   4.616865   3.352862
    20  H    7.405007   6.443415   5.048501   4.065034   2.624521
    21  H    7.405445   6.443582   5.048821   4.065094   2.624663
                    6          7          8          9         10
     6  C    0.000000
     7  N    1.502312   0.000000
     8  H    7.028384   8.199691   0.000000
     9  H    5.268214   6.567709   2.294856   0.000000
    10  H    5.267748   6.567467   2.294956   1.814363   0.000000
    11  H    4.204403   5.084342   3.528945   3.108903   2.530203
    12  H    4.204581   5.084341   3.529105   2.529950   3.108911
    13  H    2.778948   4.139805   4.675771   2.607401   3.171709
    14  H    2.778593   4.139637   4.675755   3.172464   2.607177
    15  H    2.176442   2.650347   5.935035   4.788583   4.434589
    16  H    2.176463   2.650300   5.935351   4.434407   4.788613
    17  H    1.113808   2.145051   7.201462   5.206559   5.513301
    18  H    1.113808   2.145046   7.201225   5.514047   5.206008
    19  H    2.096527   1.044948   9.073823   7.337417   7.336987
    20  H    2.096450   1.044987   8.264475   6.862808   6.633395
    21  H    2.096453   1.044987   8.264798   6.633483   6.862743
                   11         12         13         14         15
    11  H    0.000000
    12  H    1.798987   0.000000
    13  H    3.101921   2.527052   0.000000
    14  H    2.526818   3.101921   1.799077   0.000000
    15  H    2.543603   3.115476   3.102267   2.527138   0.000000
    16  H    3.116299   2.543846   2.526836   3.102262   1.800024
    17  H    4.788222   4.434261   2.599484   3.165729   3.115379
    18  H    4.433555   4.788170   3.166384   2.599157   2.536948
    19  H    6.038356   6.038519   4.809101   4.808767   3.615812
    20  H    4.926305   5.228376   4.623117   4.278296   2.383118
    21  H    5.228975   4.926635   4.278259   4.623019   2.958227
                   16         17         18         19         20
    16  H    0.000000
    17  H    2.537066   0.000000
    18  H    3.115375   1.816180   0.000000
    19  H    3.615857   2.439545   2.439447   0.000000
    20  H    2.957925   3.011180   2.443179   1.706776   0.000000
    21  H    2.383223   2.443098   3.011178   1.706776   1.705928
                   21
    21  H    0.000000
 Stoichiometry    C5H14NO(1+)
 Framework group  C1[X(C5H14NO)]
 Deg. of freedom    57
 Full point group                 C1      NOp   1
 Largest Abelian subgroup         C1      NOp   1
 Largest concise Abelian subgroup C1      NOp   1
                         Standard orientation:                         
 ---------------------------------------------------------------------
 Center     Atomic      Atomic             Coordinates (Angstroms)
 Number     Number       Type             X           Y           Z
 ---------------------------------------------------------------------
      1          8           0        3.726957   -0.443806   -0.000346
      2          6           0        2.620605    0.436342    0.000204
      3          6           0        1.331091   -0.380207    0.000075
      4          6           0        0.079453    0.511654    0.000123
      5          6           0       -1.213548   -0.320637    0.000242
      6          6           0       -2.463513    0.568241   -0.000297
      7          7           0       -3.642724   -0.362568   -0.000021
      8          1           0        4.546237    0.056790   -0.000121
      9          1           0        2.701031    1.075394    0.907638
     10          1           0        2.700749    1.076137   -0.906724
     11          1           0        1.315221   -1.040982   -0.899504
     12          1           0        1.315186   -1.041209    0.899483
     13          1           0        0.095432    1.171977    0.899620
     14          1           0        0.095340    1.171867   -0.899457
     15          1           0       -1.227682   -0.981280   -0.899524
     16          1           0       -1.227938   -0.980601    0.900501
     17          1           0       -2.503727    1.212347    0.907490
     18          1           0       -2.503499    1.211506   -0.908690
     19          1           0       -4.526535    0.194921   -0.000514
     20          1           0       -3.610288   -0.965877   -0.852643
     21          1           0       -3.610642   -0.964929    0.853285
 ---------------------------------------------------------------------
 Rotational constants (GHZ):     12.3311197      0.7085941      0.6877461
 Standard basis: 6-311++G(d,p) (5D, 7F)
 There are   259 symmetry adapted cartesian basis functions of A   symmetry.
 There are   252 symmetry adapted basis functions of A   symmetry.
   252 basis functions,   378 primitive gaussians,   259 cartesian basis functions
    29 alpha electrons       29 beta electrons
       nuclear repulsion energy       318.1124917306 Hartrees.
 NAtoms=   21 NActive=   21 NUniq=   21 SFac= 1.00D+00 NAtFMM=   60 NAOKFM=F Big=F
 Integral buffers will be    131072 words long.
 Raffenetti 2 integral format.
 Two-electron integral symmetry is turned on.
 One-electron integrals computed using PRISM.
 NBasis=   252 RedAO= T EigKep=  7.20D-06  NBF=   252
 NBsUse=   252 1.00D-06 EigRej= -1.00D+00 NBFU=   252
 ExpMin= 3.60D-02 ExpMax= 8.59D+03 ExpMxC= 1.30D+03 IAcc=3 IRadAn=         5 AccDes= 0.00D+00
 Harris functional with IExCor=  402 and IRadAn=       5 diagonalized for initial guess.
 HarFok:  IExCor=  402 AccDes= 0.00D+00 IRadAn=         5 IDoV= 1 UseB2=F ITyADJ=14
 ICtDFT=  3500011 ScaDFX=  1.000000  1.000000  1.000000  1.000000
 FoFCou: FMM=F IPFlag=           0 FMFlag=      100000 FMFlg1=           0
         NFxFlg=           0 DoJE=T BraDBF=F KetDBF=T FulRan=T
         wScrn=  0.000000 ICntrl=     500 IOpCl=  0 I1Cent=   200000004 NGrid=           0
         NMat0=    1 NMatS0=      1 NMatT0=    0 NMatD0=    1 NMtDS0=    0 NMtDT0=    0
 Petite list used in FoFCou.
 Keep R1 ints in memory in canonical form, NReq=517134184.
 Requested convergence on RMS density matrix=1.00D-08 within 128 cycles.
 Requested convergence on MAX density matrix=1.00D-06.
 Requested convergence on             energy=1.00D-06.
 No special actions if energy rises.
 SCF Done:  E(RB3LYP) =  -328.788948223     A.U. after   12 cycles
            NFock= 12  Conv=0.42D-08     -V/T= 2.0054

 **********************************************************************

            Population analysis using the SCF density.

 **********************************************************************

 Orbital symmetries:
       Occupied  (A) (A) (A) (A) (A) (A) (A) (A) (A) (A) (A) (A)
                 (A) (A) (A) (A) (A) (A) (A) (A) (A) (A) (A) (A)
                 (A) (A) (A) (A) (A)
       Virtual   (A) (A) (A) (A) (A) (A) (A) (A) (A) (A) (A) (A)
                 (A) (A) (A) (A) (A) (A) (A) (A) (A) (A) (A) (A)
                 (A) (A) (A) (A) (A) (A) (A) (A) (A) (A) (A) (A)
                 (A) (A) (A) (A) (A) (A) (A) (A) (A) (A) (A) (A)
                 (A) (A) (A) (A) (A) (A) (A) (A) (A) (A) (A) (A)
                 (A) (A) (A) (A) (A) (A) (A) (A) (A) (A) (A) (A)
                 (A) (A) (A) (A) (A) (A) (A) (A) (A) (A) (A) (A)
                 (A) (A) (A) (A) (A) (A) (A) (A) (A) (A) (A) (A)
                 (A) (A) (A) (A) (A) (A) (A) (A) (A) (A) (A) (A)
                 (A) (A) (A) (A) (A) (A) (A) (A) (A) (A) (A) (A)
                 (A) (A) (A) (A) (A) (A) (A) (A) (A) (A) (A) (A)
                 (A) (A) (A) (A) (A) (A) (A) (A) (A) (A) (A) (A)
                 (A) (A) (A) (A) (A) (A) (A) (A) (A) (A) (A) (A)
                 (A) (A) (A) (A) (A) (A) (A) (A) (A) (A) (A) (A)
                 (A) (A) (A) (A) (A) (A) (A) (A) (A) (A) (A) (A)
                 (A) (A) (A) (A) (A) (A) (A) (A) (A) (A) (A) (A)
                 (A) (A) (A) (A) (A) (A) (A) (A) (A) (A) (A) (A)
                 (A) (A) (A) (A) (A) (A) (A) (A) (A) (A) (A) (A)
                 (A) (A) (A) (A) (A) (A) (A)
 The electronic state is 1-A.
 Alpha  occ. eigenvalues --  -19.20970 -14.64645 -10.42236 -10.35205 -10.31983
 Alpha  occ. eigenvalues --  -10.31745 -10.28927  -1.20493  -1.11717  -0.97072
 Alpha  occ. eigenvalues --   -0.90110  -0.83490  -0.79360  -0.79215  -0.74263
 Alpha  occ. eigenvalues --   -0.70953  -0.68143  -0.64470  -0.61094  -0.59232
 Alpha  occ. eigenvalues --   -0.57973  -0.55384  -0.54149  -0.50714  -0.48874
 Alpha  occ. eigenvalues --   -0.48190  -0.45963  -0.42745  -0.36709
 Alpha virt. eigenvalues --   -0.20549  -0.15015  -0.15006  -0.13925  -0.10277
 Alpha virt. eigenvalues --   -0.09913  -0.09828  -0.08833  -0.08413  -0.08286
 Alpha virt. eigenvalues --   -0.06305  -0.05936  -0.05396  -0.04710  -0.04565
 Alpha virt. eigenvalues --   -0.03381  -0.03170  -0.01677  -0.01043  -0.00947
 Alpha virt. eigenvalues --   -0.00547  -0.00106   0.00208   0.01189   0.01265
 Alpha virt. eigenvalues --    0.01479   0.02381   0.02652   0.02843   0.03849
 Alpha virt. eigenvalues --    0.04128   0.04232   0.04929   0.05548   0.05899
 Alpha virt. eigenvalues --    0.06477   0.06712   0.07463   0.07483   0.07820
 Alpha virt. eigenvalues --    0.08240   0.09120   0.09435   0.09878   0.11456
 Alpha virt. eigenvalues --    0.11656   0.12739   0.13041   0.14115   0.15331
 Alpha virt. eigenvalues --    0.16833   0.18675   0.18780   0.19166   0.19515
 Alpha virt. eigenvalues --    0.20592   0.22111   0.22505   0.23818   0.24186
 Alpha virt. eigenvalues --    0.27355   0.28531   0.28935   0.31076   0.33015
 Alpha virt. eigenvalues --    0.33760   0.34166   0.35970   0.37017   0.39158
 Alpha virt. eigenvalues --    0.41218   0.43572   0.43898   0.46624   0.46956
 Alpha virt. eigenvalues --    0.47350   0.49313   0.49616   0.51880   0.53015
 Alpha virt. eigenvalues --    0.53546   0.54157   0.54662   0.55425   0.56522
 Alpha virt. eigenvalues --    0.58205   0.59374   0.59531   0.60987   0.61522
 Alpha virt. eigenvalues --    0.62599   0.65470   0.65571   0.68488   0.72725
 Alpha virt. eigenvalues --    0.78040   0.82369   0.83309   0.85858   0.88323
 Alpha virt. eigenvalues --    0.92082   0.98953   0.99349   1.01662   1.03980
 Alpha virt. eigenvalues --    1.04868   1.05719   1.09108   1.09357   1.12631
 Alpha virt. eigenvalues --    1.13667   1.19574   1.20370   1.26741   1.28655
 Alpha virt. eigenvalues --    1.31934   1.33658   1.36385   1.39131   1.40510
 Alpha virt. eigenvalues --    1.42029   1.43074   1.44855   1.45757   1.46124
 Alpha virt. eigenvalues --    1.47359   1.49064   1.50298   1.50353   1.52197
 Alpha virt. eigenvalues --    1.53201   1.54653   1.54664   1.57213   1.57885
 Alpha virt. eigenvalues --    1.57977   1.62723   1.62749   1.65693   1.68839
 Alpha virt. eigenvalues --    1.70419   1.72675   1.76343   1.79354   1.79525
 Alpha virt. eigenvalues --    1.84728   1.91441   1.92641   1.95038   1.95560
 Alpha virt. eigenvalues --    1.99316   2.00626   2.04232   2.05227   2.07217
 Alpha virt. eigenvalues --    2.09192   2.12554   2.15881   2.15996   2.20272
 Alpha virt. eigenvalues --    2.24009   2.26584   2.27407   2.33552   2.34539
 Alpha virt. eigenvalues --    2.35906   2.37279   2.39171   2.39788   2.43198
 Alpha virt. eigenvalues --    2.45160   2.46648   2.47262   2.50613   2.50740
 Alpha virt. eigenvalues --    2.52106   2.53029   2.55777   2.60105   2.60292
 Alpha virt. eigenvalues --    2.61116   2.68320   2.71638   2.73018   2.76168
 Alpha virt. eigenvalues --    2.76423   2.78224   2.78667   2.80170   2.83874
 Alpha virt. eigenvalues --    2.86883   2.88007   2.96078   3.02010   3.11509
 Alpha virt. eigenvalues --    3.14718   3.20322   3.29148   3.32630   3.54991
 Alpha virt. eigenvalues --    3.59857   3.64493   3.68399   3.73734   3.80118
 Alpha virt. eigenvalues --    3.87762   3.89323   3.96730   4.08144   4.19187
 Alpha virt. eigenvalues --    4.37477   4.38771   4.48861   4.96645   5.31307
 Alpha virt. eigenvalues --    5.59340  23.60346  23.67788  23.70333  23.72464
 Alpha virt. eigenvalues --   23.74734  35.27106  49.83533
          Condensed to atoms (all electrons):
               1          2          3          4          5          6
     1  O    8.050204  -0.002972   0.087919   0.007841   0.029246   0.000008
     2  C   -0.002972   6.135479  -0.353977   0.142191  -0.277633  -0.106236
     3  C    0.087919  -0.353977   6.366315  -0.384370   0.356466  -0.284636
     4  C    0.007841   0.142191  -0.384370   6.181282  -0.708394   0.237449
     5  C    0.029246  -0.277633   0.356466  -0.708394   6.813437  -0.737702
     6  C    0.000008  -0.106236  -0.284636   0.237449  -0.737702   6.955520
     7  N   -0.000068  -0.003442  -0.005755  -0.035351  -0.015532  -0.033279
     8  H    0.202920   0.136415  -0.113099   0.009968  -0.007137  -0.000154
     9  H   -0.066768   0.373070  -0.004601  -0.037855  -0.001158   0.001231
    10  H   -0.066851   0.372845  -0.004611  -0.037922  -0.001019   0.001255
    11  H    0.009683  -0.031646   0.382591  -0.009771  -0.025610  -0.005321
    12  H    0.009705  -0.031875   0.382412  -0.010082  -0.025167  -0.005181
    13  H   -0.002623   0.010315  -0.058770   0.451803  -0.054462  -0.007839
    14  H   -0.002622   0.010207  -0.058995   0.451586  -0.054323  -0.007514
    15  H    0.001176  -0.006905   0.006871  -0.085134   0.465516  -0.046909
    16  H    0.001175  -0.006888   0.006853  -0.085171   0.465392  -0.046791
    17  H    0.000059   0.000892  -0.001171  -0.020969  -0.025216   0.372515
    18  H    0.000059   0.000900  -0.001169  -0.020900  -0.025308   0.372518
    19  H   -0.000005  -0.000311  -0.000688  -0.000449   0.019467  -0.024687
    20  H    0.000000   0.000159  -0.000838   0.005620   0.014523  -0.023942
    21  H    0.000000   0.000159  -0.000836   0.005628   0.014515  -0.023957
               7          8          9         10         11         12
     1  O   -0.000068   0.202920  -0.066768  -0.066851   0.009683   0.009705
     2  C   -0.003442   0.136415   0.373070   0.372845  -0.031646  -0.031875
     3  C   -0.005755  -0.113099  -0.004601  -0.004611   0.382591   0.382412
     4  C   -0.035351   0.009968  -0.037855  -0.037922  -0.009771  -0.010082
     5  C   -0.015532  -0.007137  -0.001158  -0.001019  -0.025610  -0.025167
     6  C   -0.033279  -0.000154   0.001231   0.001255  -0.005321  -0.005181
     7  N    6.275592   0.000015  -0.000003  -0.000004  -0.000662  -0.000662
     8  H    0.000015   0.517061  -0.004664  -0.004652   0.001157   0.001153
     9  H   -0.000003  -0.004664   0.718256  -0.129749   0.044556  -0.057689
    10  H   -0.000004  -0.004652  -0.129749   0.718450  -0.057655   0.044606
    11  H   -0.000662   0.001157   0.044556  -0.057655   0.657195  -0.110901
    12  H   -0.000662   0.001153  -0.057689   0.044606  -0.110901   0.657382
    13  H    0.000535   0.000286   0.034512  -0.022408   0.036377  -0.050513
    14  H    0.000556   0.000282  -0.022375   0.034504  -0.050526   0.036376
    15  H   -0.001882  -0.000195  -0.000936   0.001476   0.004900  -0.001013
    16  H   -0.001802  -0.000196   0.001481  -0.000944  -0.001002   0.004848
    17  H   -0.005201   0.000002  -0.002401   0.002092  -0.003815   0.005597
    18  H   -0.005169   0.000002   0.002088  -0.002402   0.005596  -0.003818
    19  H    0.324140   0.000000  -0.000001  -0.000001  -0.000039  -0.000039
    20  H    0.345105   0.000000   0.000008   0.000020  -0.000282   0.000411
    21  H    0.345124   0.000000   0.000019   0.000008   0.000409  -0.000280
              13         14         15         16         17         18
     1  O   -0.002623  -0.002622   0.001176   0.001175   0.000059   0.000059
     2  C    0.010315   0.010207  -0.006905  -0.006888   0.000892   0.000900
     3  C   -0.058770  -0.058995   0.006871   0.006853  -0.001171  -0.001169
     4  C    0.451803   0.451586  -0.085134  -0.085171  -0.020969  -0.020900
     5  C   -0.054462  -0.054323   0.465516   0.465392  -0.025216  -0.025308
     6  C   -0.007839  -0.007514  -0.046909  -0.046791   0.372515   0.372518
     7  N    0.000535   0.000556  -0.001882  -0.001802  -0.005201  -0.005169
     8  H    0.000286   0.000282  -0.000195  -0.000196   0.000002   0.000002
     9  H    0.034512  -0.022375  -0.000936   0.001481  -0.002401   0.002088
    10  H   -0.022408   0.034504   0.001476  -0.000944   0.002092  -0.002402
    11  H    0.036377  -0.050526   0.004900  -0.001002  -0.003815   0.005596
    12  H   -0.050513   0.036376  -0.001013   0.004848   0.005597  -0.003818
    13  H    0.645651  -0.114447   0.023264  -0.034270   0.005176   0.000064
    14  H   -0.114447   0.645756  -0.034254   0.023271   0.000054   0.005165
    15  H    0.023264  -0.034254   0.635257  -0.111715   0.023703  -0.030951
    16  H   -0.034270   0.023271  -0.111715   0.635308  -0.030967   0.023702
    17  H    0.005176   0.000054   0.023703  -0.030967   0.480427  -0.044218
    18  H    0.000064   0.005165  -0.030951   0.023702  -0.044218   0.480419
    19  H    0.000190   0.000195   0.000365   0.000375   0.000783   0.000789
    20  H   -0.001407   0.001805   0.005282  -0.001229   0.005593  -0.012191
    21  H    0.001804  -0.001407  -0.001218   0.005269  -0.012182   0.005586
              19         20         21
     1  O   -0.000005   0.000000   0.000000
     2  C   -0.000311   0.000159   0.000159
     3  C   -0.000688  -0.000838  -0.000836
     4  C   -0.000449   0.005620   0.005628
     5  C    0.019467   0.014523   0.014515
     6  C   -0.024687  -0.023942  -0.023957
     7  N    0.324140   0.345105   0.345124
     8  H    0.000000   0.000000   0.000000
     9  H   -0.000001   0.000008   0.000019
    10  H   -0.000001   0.000020   0.000008
    11  H   -0.000039  -0.000282   0.000409
    12  H   -0.000039   0.000411  -0.000280
    13  H    0.000190  -0.001407   0.001804
    14  H    0.000195   0.001805  -0.001407
    15  H    0.000365   0.005282  -0.001218
    16  H    0.000375  -0.001229   0.005269
    17  H    0.000783   0.005593  -0.012182
    18  H    0.000789  -0.012191   0.005586
    19  H    0.348275  -0.011287  -0.011283
    20  H   -0.011287   0.363649  -0.026600
    21  H   -0.011283  -0.026600   0.363623
 Mulliken charges:
               1
     1  O   -0.258086
     2  C   -0.360747
     3  C   -0.315912
     4  C   -0.057000
     5  C   -0.219903
     6  C   -0.586348
     7  N   -0.182256
     8  H    0.260836
     9  H    0.152978
    10  H    0.152961
    11  H    0.154767
    12  H    0.154730
    13  H    0.136762
    14  H    0.136704
    15  H    0.153303
    16  H    0.153298
    17  H    0.249246
    18  H    0.249237
    19  H    0.354212
    20  H    0.335600
    21  H    0.335619
 Sum of Mulliken charges =   1.00000
 Mulliken charges with hydrogens summed into heavy atoms:
               1
     1  O    0.002750
     2  C   -0.054808
     3  C   -0.006415
     4  C    0.216466
     5  C    0.086698
     6  C   -0.087865
     7  N    0.843174
 Electronic spatial extent (au):  <R**2>=           1599.0357
 Charge=              1.0000 electrons
 Dipole moment (field-independent basis, Debye):
    X=            -14.1716    Y=              0.6545    Z=              0.0008  Tot=             14.1867
 Quadrupole moment (field-independent basis, Debye-Ang):
   XX=             18.4960   YY=            -42.2520   ZZ=            -41.3907
   XY=             11.2538   XZ=              0.0043   YZ=             -0.0005
 Traceless Quadrupole moment (field-independent basis, Debye-Ang):
   XX=             40.2116   YY=            -20.5364   ZZ=            -19.6751
   XY=             11.2538   XZ=              0.0043   YZ=             -0.0005
 Octapole moment (field-independent basis, Debye-Ang**2):
  XXX=           -185.1829  YYY=             -3.3189  ZZZ=              0.0017  XYY=            -17.7111
  XXY=              9.4793  XXZ=              0.0095  XZZ=            -13.5361  YZZ=             -1.8838
  YYZ=             -0.0024  XYZ=             -0.0015
 Hexadecapole moment (field-independent basis, Debye-Ang**3):
 XXXX=           -537.5486 YYYY=           -149.6628 ZZZZ=            -81.7855 XXXY=            161.3868
 XXXZ=              0.0583 YYYX=             11.6591 YYYZ=              0.0062 ZZZX=             -0.0048
 ZZZY=             -0.0046 XXYY=           -290.5907 XXZZ=           -275.2559 YYZZ=            -31.6568
 XXYZ=             -0.0095 YYXZ=              0.0037 ZZXY=             10.1916
 N-N= 3.181124917306D+02 E-N=-1.392008448818D+03  KE= 3.270217760505D+02

 **********************************************************************

            Electrostatic Properties Using The SCF Density

 **********************************************************************

       Atomic Center    1 is at   3.726957 -0.443806 -0.000346
       Atomic Center    2 is at   2.620605  0.436342  0.000204
       Atomic Center    3 is at   1.331091 -0.380207  0.000075
       Atomic Center    4 is at   0.079453  0.511654  0.000123
       Atomic Center    5 is at  -1.213548 -0.320637  0.000242
       Atomic Center    6 is at  -2.463513  0.568241 -0.000297
       Atomic Center    7 is at  -3.642724 -0.362568 -0.000021
       Atomic Center    8 is at   4.546237  0.056790 -0.000121
       Atomic Center    9 is at   2.701031  1.075394  0.907638
       Atomic Center   10 is at   2.700749  1.076137 -0.906724
       Atomic Center   11 is at   1.315221 -1.040982 -0.899504
       Atomic Center   12 is at   1.315186 -1.041209  0.899483
       Atomic Center   13 is at   0.095432  1.171977  0.899620
       Atomic Center   14 is at   0.095340  1.171867 -0.899457
       Atomic Center   15 is at  -1.227682 -0.981280 -0.899524
       Atomic Center   16 is at  -1.227938 -0.980601  0.900501
       Atomic Center   17 is at  -2.503727  1.212347  0.907490
       Atomic Center   18 is at  -2.503499  1.211506 -0.908690
       Atomic Center   19 is at  -4.526535  0.194921 -0.000514
       Atomic Center   20 is at  -3.610288 -0.965877 -0.852643
       Atomic Center   21 is at  -3.610642 -0.964929  0.853285
 -----------------------------------------------------------------

              Electrostatic Properties (Atomic Units)

 -----------------------------------------------------------------
    Center     Electric         -------- Electric Field --------
               Potential          X             Y             Z
 -----------------------------------------------------------------
    1 Atom    -22.284301     -0.003394     -0.049161     -0.000027
    2 Atom    -14.624639     -0.006556      0.007461      0.000004
    3 Atom    -14.656203      0.002508     -0.000935     -0.000001
    4 Atom    -14.627305      0.004409      0.000185      0.000000
    5 Atom    -14.593553      0.006134      0.000995      0.000001
    6 Atom    -14.523888      0.016503      0.006817     -0.000001
    7 Atom    -18.063885      0.001877      0.003795     -0.000001
    8 Atom     -0.917337      0.023740      0.013449      0.000006
    9 Atom     -1.026544     -0.005911      0.008031      0.005830
   10 Atom     -1.026548     -0.005913      0.008039     -0.005825
   11 Atom     -1.011261      0.002223     -0.003316     -0.002788
   12 Atom     -1.011261      0.002220     -0.003318      0.002787
   13 Atom     -0.985516     -0.000195      0.003928      0.003260
   14 Atom     -0.985515     -0.000194      0.003927     -0.003260
   15 Atom     -0.946799      0.000743     -0.003673     -0.004214
   16 Atom     -0.946798      0.000741     -0.003671      0.004216
   17 Atom     -0.901610     -0.003812      0.001488      0.002655
   18 Atom     -0.901611     -0.003811      0.001486     -0.002656
   19 Atom     -0.750805     -0.007672     -0.004035      0.000001
   20 Atom     -0.748344     -0.003430     -0.004465     -0.001360
   21 Atom     -0.748344     -0.003431     -0.004463      0.001363
 -----------------------------------------------------------------
 -----------------------------------------------------
    Center         ---- Electric Field Gradient ----
                     XX            YY            ZZ
 -----------------------------------------------------
    1 Atom    -1238.371417  -1236.674537  -1234.620422
    2 Atom     -500.562501   -500.451874   -500.200555
    3 Atom     -500.384863   -500.369287   -500.275294
    4 Atom     -500.345144   -500.292127   -500.220440
    5 Atom     -500.390034   -500.397833   -500.309713
    6 Atom     -500.774643   -500.587092   -500.294940
    7 Atom     -812.332713   -812.398810   -812.403408
    8 Atom       -2.077049     -1.750301     -1.505445
    9 Atom       -1.716350     -1.833341     -1.963028
   10 Atom       -1.716351     -1.833670     -1.962753
   11 Atom       -1.670243     -1.797324     -1.919404
   12 Atom       -1.670252     -1.797429     -1.919321
   13 Atom       -1.678762     -1.803104     -1.924050
   14 Atom       -1.678771     -1.803062     -1.924102
   15 Atom       -1.677068     -1.795273     -1.917312
   16 Atom       -1.677073     -1.794993     -1.917589
   17 Atom       -1.657257     -1.768813     -1.901001
   18 Atom       -1.657253     -1.768487     -1.901346
   19 Atom       -1.848147     -1.651059     -1.526814
   20 Atom       -1.521612     -1.669725     -1.819791
   21 Atom       -1.521604     -1.669260     -1.820269
 -----------------------------------------------------
 -----------------------------------------------------
    Center         ---- Electric Field Gradient ----
                     XY            XZ            YZ
 -----------------------------------------------------
    1 Atom        0.238666      0.000392     -0.001145
    2 Atom        0.229377      0.000155     -0.000143
    3 Atom        0.046505      0.000000     -0.000011
    4 Atom       -0.084452      0.000004      0.000017
    5 Atom        0.108038     -0.000055      0.000049
    6 Atom       -0.383408      0.000114      0.000088
    7 Atom        0.033136     -0.000008      0.000005
    8 Atom       -0.302365     -0.000131     -0.000117
    9 Atom       -0.009388     -0.019997     -0.188968
   10 Atom       -0.009346      0.019910      0.189085
   11 Atom       -0.006081     -0.008017     -0.186869
   12 Atom       -0.006090      0.008024      0.186903
   13 Atom       -0.002839     -0.000184     -0.188095
   14 Atom       -0.002820      0.000157      0.188081
   15 Atom       -0.004409     -0.010941     -0.186928
   16 Atom       -0.004453      0.011013      0.186836
   17 Atom        0.001332      0.020851     -0.178927
   18 Atom        0.001268     -0.020790      0.178805
   19 Atom        0.202437     -0.000179      0.000111
   20 Atom        0.007501      0.011129     -0.210079
   21 Atom        0.007402     -0.011014      0.209916
 -----------------------------------------------------
 -----------------------------------------------------
    Center         ---- Electric Field Gradient ----
                   ----       Eigenvalues       ----
 -----------------------------------------------------
    1 Atom    -1238.404346  -1236.641608  -1234.620421
    2 Atom     -500.743140   -500.271235   -500.200555
    3 Atom     -500.424228   -500.329922   -500.275294
    4 Atom     -500.407151   -500.230121   -500.220440
    5 Atom     -500.502041   -500.309713   -500.285825
    6 Atom     -501.075577   -500.294940   -500.286158
    7 Atom     -812.412561   -812.403408   -812.318962
    8 Atom       -2.257354     -1.569996     -1.505444
    9 Atom       -2.099202     -1.716014     -1.697503
   10 Atom       -2.099230     -1.716026     -1.697517
   11 Atom       -2.055213     -1.669985     -1.661774
   12 Atom       -2.055227     -1.669994     -1.661781
   13 Atom       -2.061163     -1.679117     -1.665635
   14 Atom       -2.061169     -1.679127     -1.665639
   15 Atom       -2.053276     -1.677185     -1.659192
   16 Atom       -2.053279     -1.677184     -1.659192
   17 Atom       -2.026517     -1.662699     -1.637855
   18 Atom       -2.026521     -1.662705     -1.637860
   19 Atom       -1.974751     -1.526814     -1.524455
   20 Atom       -1.968238     -1.521811     -1.521080
   21 Atom       -1.968241     -1.521812     -1.521081
 -----------------------------------------------------
 -----------------------------------------------------
    Center         ---- Electric Field Gradient ----
                       ( tensor representation )
                   3XX-RR        3YY-RR        3ZZ-RR
 -----------------------------------------------------
    1 Atom       -1.815958     -0.119079      1.935037
    2 Atom       -0.157524     -0.046897      0.204422
    3 Atom       -0.041715     -0.026139      0.067854
    4 Atom       -0.059241     -0.006223      0.065464
    5 Atom       -0.024174     -0.031973      0.056146
    6 Atom       -0.222418     -0.034867      0.257285
    7 Atom        0.045597     -0.020499     -0.025098
    8 Atom       -0.299451      0.027297      0.272154
    9 Atom        0.121223      0.004232     -0.125455
   10 Atom        0.121240      0.003922     -0.125162
   11 Atom        0.125414     -0.001667     -0.123747
   12 Atom        0.125415     -0.001762     -0.123654
   13 Atom        0.123210     -0.001132     -0.122078
   14 Atom        0.123208     -0.001084     -0.122124
   15 Atom        0.119483      0.001278     -0.120761
   16 Atom        0.119479      0.001559     -0.121038
   17 Atom        0.118433      0.006877     -0.125311
   18 Atom        0.118442      0.007209     -0.125651
   19 Atom       -0.172807      0.024281      0.148526
   20 Atom        0.148764      0.000651     -0.149415
   21 Atom        0.148774      0.001118     -0.149891
 -----------------------------------------------------
 -----------------------------------------------------
    Center         ---- Electric Field Gradient ----
                       ( tensor representation )
                   ----       Eigenvalues       ----
 -----------------------------------------------------
    1 Atom       -1.848888     -0.086150      1.935038
    2 Atom       -0.338163      0.133741      0.204422
    3 Atom       -0.081080      0.013226      0.067854
    4 Atom       -0.121247      0.055783      0.065464
    5 Atom       -0.136181      0.056147      0.080035
    6 Atom       -0.523352      0.257285      0.266067
    7 Atom       -0.034251     -0.025098      0.059348
    8 Atom       -0.479756      0.207603      0.272154
    9 Atom       -0.261629      0.121559      0.140070
   10 Atom       -0.261639      0.121565      0.140074
   11 Atom       -0.259555      0.125672      0.133884
   12 Atom       -0.259560      0.125673      0.133887
   13 Atom       -0.259191      0.122855      0.136337
   14 Atom       -0.259191      0.122852      0.136339
   15 Atom       -0.256725      0.119366      0.137359
   16 Atom       -0.256727      0.119368      0.137360
   17 Atom       -0.250826      0.112991      0.137835
   18 Atom       -0.250825      0.112990      0.137835
   19 Atom       -0.299411      0.148526      0.150885
   20 Atom       -0.297861      0.148565      0.149296
   21 Atom       -0.297863      0.148566      0.149297
 -----------------------------------------------------
 Calling FoFJK, ICntrl=      2127 FMM=F ISym2X=0 I1Cent= 0 IOpClX= 0 NMat=1 NMatS=1 NMatT=0.
 ***** Axes restored to original set *****
 -------------------------------------------------------------------
 Center     Atomic                   Forces (Hartrees/Bohr)
 Number     Number              X              Y              Z
 -------------------------------------------------------------------
      1        8          -0.013206754    0.005351957   -0.000017189
      2        6           0.006491318   -0.014688437    0.000013177
      3        6          -0.008323724    0.004164910   -0.000009523
      4        6           0.006425224   -0.005610198    0.000005916
      5        6          -0.003164123   -0.002587253    0.000000085
      6        6          -0.002124674   -0.022173749    0.000000968
      7        7           0.011324563    0.015780581    0.000003944
      8        1           0.001106636   -0.001219713    0.000002084
      9        1           0.002198671    0.008027859   -0.008183096
     10        1           0.002179209    0.008030893    0.008181633
     11        1           0.005486660   -0.004591051    0.010709143
     12        1           0.005508483   -0.004592905   -0.010695246
     13        1          -0.005200393    0.003158195   -0.010339791
     14        1          -0.005218301    0.003159318    0.010329735
     15        1           0.005677948   -0.002650798    0.009293459
     16        1           0.005686451   -0.002652154   -0.009288008
     17        1          -0.006742149    0.006853479   -0.011552389
     18        1          -0.006751005    0.006855929    0.011545804
     19        1          -0.017056322   -0.002202294   -0.000004512
     20        1           0.007846566    0.000794632    0.014803217
     21        1           0.007855715    0.000790796   -0.014799410
 -------------------------------------------------------------------
 Cartesian Forces:  Max     0.022173749 RMS     0.007934942

 GradGradGradGradGradGradGradGradGradGradGradGradGradGradGradGradGradGrad
 Berny optimization.
 FormGI is forming the generalized inverse of G from B-inverse, IUseBI=4.
 Internal  Forces:  Max     0.018094786 RMS     0.005831213
 Search for a local minimum.
 Step number   1 out of a maximum of  115
 All quantities printed in internal units (Hartrees-Bohrs-Radians)
 Mixed Optimization -- RFO/linear search
 Second derivative matrix not updated -- first step.
 ITU=  0
     Eigenvalues ---    0.00267   0.00278   0.00319   0.00338   0.00418
     Eigenvalues ---    0.01510   0.03571   0.03584   0.03591   0.04205
     Eigenvalues ---    0.04810   0.04824   0.04853   0.05003   0.05242
     Eigenvalues ---    0.05570   0.05784   0.05789   0.07241   0.08114
     Eigenvalues ---    0.08132   0.08223   0.11325   0.11562   0.12051
     Eigenvalues ---    0.12062   0.12123   0.13740   0.16000   0.16000
     Eigenvalues ---    0.16000   0.16000   0.21853   0.21920   0.21923
     Eigenvalues ---    0.21929   0.22022   0.28723   0.28797   0.29076
     Eigenvalues ---    0.29768   0.31937   0.31937   0.31942   0.31943
     Eigenvalues ---    0.31977   0.31977   0.32136   0.32200   0.32200
     Eigenvalues ---    0.32307   0.32307   0.40579   0.40579   0.40585
     Eigenvalues ---    0.43417   0.55449
 RFO step:  Lambda=-1.35541659D-02 EMin= 2.67084750D-03
 Linear search not attempted -- first point.
 Iteration  1 RMS(Cart)=  0.04594364 RMS(Int)=  0.00120797
 Iteration  2 RMS(Cart)=  0.00146977 RMS(Int)=  0.00065556
 Iteration  3 RMS(Cart)=  0.00000279 RMS(Int)=  0.00065556
 Iteration  4 RMS(Cart)=  0.00000001 RMS(Int)=  0.00065556
 Variable       Old X    -DE/DX   Delta X   Delta X   Delta X     New X
                                 (Linear)    (Quad)   (Total)
    R1        2.67159   0.00878   0.00000   0.01961   0.01961   2.69120
    R2        1.81435   0.00136   0.00000   0.00239   0.00239   1.81674
    R3        2.88429  -0.00562   0.00000  -0.01805  -0.01805   2.86625
    R4        2.10286  -0.00797   0.00000  -0.02368  -0.02368   2.07918
    R5        2.10285  -0.00797   0.00000  -0.02367  -0.02367   2.07918
    R6        2.90429  -0.00150   0.00000  -0.00497  -0.00497   2.89932
    R7        2.10949  -0.01273   0.00000  -0.03822  -0.03822   2.07127
    R8        2.10949  -0.01273   0.00000  -0.03822  -0.03822   2.07127
    R9        2.90586  -0.00156   0.00000  -0.00520  -0.00520   2.90065
   R10        2.10887  -0.01192   0.00000  -0.03575  -0.03575   2.07312
   R11        2.10887  -0.01192   0.00000  -0.03575  -0.03575   2.07312
   R12        2.89845  -0.00143   0.00000  -0.00469  -0.00469   2.89376
   R13        2.10959  -0.01120   0.00000  -0.03364  -0.03364   2.07595
   R14        2.10959  -0.01120   0.00000  -0.03364  -0.03364   2.07595
   R15        2.83896   0.01218   0.00000   0.03637   0.03637   2.87533
   R16        2.10479  -0.01445   0.00000  -0.04307  -0.04307   2.06172
   R17        2.10479  -0.01445   0.00000  -0.04307  -0.04307   2.06172
   R18        1.97467  -0.01537   0.00000  -0.03665  -0.03665   1.93801
   R19        1.97474  -0.01616   0.00000  -0.03854  -0.03854   1.93620
   R20        1.97474  -0.01616   0.00000  -0.03854  -0.03854   1.93620
    A1        1.92109  -0.00170   0.00000  -0.00981  -0.00981   1.91129
    A2        1.90509  -0.01129   0.00000  -0.04029  -0.03975   1.86534
    A3        1.87684   0.00917   0.00000   0.06723   0.06628   1.94312
    A4        1.87682   0.00917   0.00000   0.06725   0.06630   1.94312
    A5        1.94804  -0.00264   0.00000  -0.03412  -0.03420   1.91385
    A6        1.94805  -0.00264   0.00000  -0.03412  -0.03420   1.91385
    A7        1.90627  -0.00088   0.00000  -0.01820  -0.02165   1.88463
    A8        1.95800   0.00148   0.00000   0.00816   0.00818   1.96618
    A9        1.90578  -0.00145   0.00000  -0.01197  -0.01206   1.89372
   A10        1.90578  -0.00144   0.00000  -0.01195  -0.01204   1.89374
   A11        1.90917   0.00076   0.00000   0.01101   0.01105   1.92021
   A12        1.90921   0.00076   0.00000   0.01098   0.01101   1.92022
   A13        1.87400  -0.00019   0.00000  -0.00699  -0.00720   1.86680
   A14        1.95056   0.00090   0.00000   0.00643   0.00642   1.95698
   A15        1.90894   0.00028   0.00000   0.00505   0.00505   1.91399
   A16        1.90889   0.00029   0.00000   0.00507   0.00507   1.91397
   A17        1.90947  -0.00049   0.00000  -0.00317  -0.00321   1.90627
   A18        1.90948  -0.00049   0.00000  -0.00315  -0.00319   1.90628
   A19        1.87494  -0.00054   0.00000  -0.01092  -0.01095   1.86399
   A20        1.95152   0.00280   0.00000   0.01382   0.01381   1.96532
   A21        1.90805  -0.00078   0.00000  -0.00239  -0.00240   1.90564
   A22        1.90803  -0.00078   0.00000  -0.00238  -0.00239   1.90564
   A23        1.90960  -0.00077   0.00000  -0.00228  -0.00230   1.90730
   A24        1.90963  -0.00077   0.00000  -0.00230  -0.00232   1.90731
   A25        1.87545   0.00019   0.00000  -0.00522  -0.00524   1.87020
   A26        1.85523   0.01809   0.00000   0.08353   0.08360   1.93883
   A27        1.94365  -0.00288   0.00000   0.00634   0.00738   1.95103
   A28        1.94362  -0.00288   0.00000   0.00635   0.00739   1.95101
   A29        1.90690  -0.00779   0.00000  -0.04560  -0.04708   1.85982
   A30        1.90689  -0.00779   0.00000  -0.04559  -0.04707   1.85982
   A31        1.90650   0.00313   0.00000  -0.00587  -0.00778   1.89873
   A32        1.91064   0.00939   0.00000   0.05803   0.05719   1.96782
   A33        1.91049   0.00349   0.00000   0.01818   0.01775   1.92824
   A34        1.91049   0.00350   0.00000   0.01818   0.01776   1.92825
   A35        1.91121  -0.00585   0.00000  -0.02980  -0.03059   1.88062
   A36        1.91121  -0.00585   0.00000  -0.02980  -0.03059   1.88062
   A37        1.90976  -0.00468   0.00000  -0.03480  -0.03478   1.87497
    D1       -3.14143   0.00000   0.00000   0.00001   0.00001  -3.14142
    D2       -1.02531  -0.00426   0.00000  -0.02436  -0.02653  -1.05184
    D3        1.02564   0.00426   0.00000   0.02436   0.02653   1.05218
    D4       -3.14122   0.00000   0.00000  -0.00005  -0.00005  -3.14127
    D5       -1.02177   0.00094   0.00000   0.01097   0.01090  -1.01087
    D6        1.02245  -0.00094   0.00000  -0.01105  -0.01098   1.01148
    D7        1.06974  -0.00248   0.00000  -0.03649  -0.03616   1.03358
    D8       -3.09400  -0.00154   0.00000  -0.02547  -0.02521  -3.11920
    D9       -1.04978  -0.00342   0.00000  -0.04749  -0.04708  -1.09686
   D10       -1.06901   0.00248   0.00000   0.03642   0.03608  -1.03293
   D11        1.05044   0.00342   0.00000   0.04744   0.04703   1.09747
   D12        3.09466   0.00154   0.00000   0.02542   0.02515   3.11982
   D13       -3.14142   0.00000   0.00000   0.00000   0.00000  -3.14142
   D14       -1.02429   0.00016   0.00000   0.00365   0.00366  -1.02063
   D15        1.02466  -0.00016   0.00000  -0.00369  -0.00370   1.02096
   D16        1.02426   0.00033   0.00000   0.00214   0.00213   1.02639
   D17        3.14139   0.00049   0.00000   0.00580   0.00580  -3.13600
   D18       -1.09285   0.00016   0.00000  -0.00154  -0.00156  -1.09441
   D19       -1.02387  -0.00032   0.00000  -0.00214  -0.00213  -1.02601
   D20        1.09326  -0.00016   0.00000   0.00151   0.00153   1.09479
   D21       -3.14098  -0.00049   0.00000  -0.00583  -0.00583   3.13638
   D22       -3.14118   0.00000   0.00000  -0.00007  -0.00007  -3.14125
   D23       -1.02388   0.00033   0.00000   0.00446   0.00446  -1.01942
   D24        1.02467  -0.00034   0.00000  -0.00459  -0.00459   1.02009
   D25        1.02519  -0.00061   0.00000  -0.00849  -0.00847   1.01671
   D26       -3.14070  -0.00028   0.00000  -0.00395  -0.00394   3.13855
   D27       -1.09215  -0.00095   0.00000  -0.01300  -0.01299  -1.10513
   D28       -1.02441   0.00061   0.00000   0.00838   0.00837  -1.01605
   D29        1.09289   0.00095   0.00000   0.01291   0.01290   1.10579
   D30        3.14144   0.00028   0.00000   0.00386   0.00385  -3.13789
   D31       -3.14152   0.00000   0.00000   0.00000   0.00000  -3.14152
   D32       -1.06628   0.00002   0.00000  -0.00072  -0.00027  -1.06655
   D33        1.06645  -0.00002   0.00000   0.00071   0.00026   1.06671
   D34        1.02526  -0.00033   0.00000  -0.00449  -0.00449   1.02077
   D35        3.10050  -0.00031   0.00000  -0.00521  -0.00476   3.09574
   D36       -1.04996  -0.00036   0.00000  -0.00378  -0.00423  -1.05418
   D37       -1.02511   0.00033   0.00000   0.00449   0.00449  -1.02062
   D38        1.05013   0.00036   0.00000   0.00377   0.00422   1.05435
   D39       -3.10033   0.00031   0.00000   0.00520   0.00475  -3.09558
   D40       -3.14145   0.00000   0.00000  -0.00002  -0.00002  -3.14146
   D41       -1.04643   0.00073   0.00000   0.01017   0.01038  -1.03605
   D42        1.04672  -0.00073   0.00000  -0.01021  -0.01042   1.03630
   D43        1.04254  -0.00276   0.00000  -0.03087  -0.02979   1.01275
   D44        3.13756  -0.00203   0.00000  -0.02068  -0.01939   3.11817
   D45       -1.05248  -0.00349   0.00000  -0.04106  -0.04019  -1.09267
   D46       -1.04229   0.00276   0.00000   0.03086   0.02978  -1.01251
   D47        1.05273   0.00349   0.00000   0.04105   0.04018   1.09291
   D48       -3.13731   0.00203   0.00000   0.02067   0.01938  -3.11793
         Item               Value     Threshold  Converged?
 Maximum Force            0.018095     0.000450     NO 
 RMS     Force            0.005831     0.000300     NO 
 Maximum Displacement     0.160659     0.001800     NO 
 RMS     Displacement     0.045666     0.001200     NO 
 Predicted change in Energy=-7.217825D-03
 GradGradGradGradGradGradGradGradGradGradGradGradGradGradGradGradGradGrad

                          Input orientation:                          
 ---------------------------------------------------------------------
 Center     Atomic      Atomic             Coordinates (Angstroms)
 Number     Number       Type             X           Y           Z
 ---------------------------------------------------------------------
      1          8           0       -2.034833   -3.162686   -0.002451
      2          6           0       -0.752631   -2.542950   -0.000939
      3          6           0       -0.987819   -1.044542   -0.001530
      4          6           0        0.319307   -0.241202   -0.000478
      5          6           0        0.067353    1.272939   -0.000843
      6          6           0        1.365237    2.085593   -0.000282
      7          7           0        1.075807    3.579371   -0.000561
      8          1           0       -1.929545   -4.118282   -0.001975
      9          1           0       -0.172265   -2.826120    0.889876
     10          1           0       -0.169995   -2.826467   -0.890162
     11          1           0       -1.586017   -0.786698   -0.883031
     12          1           0       -1.587727   -0.786248    0.878677
     13          1           0        0.915779   -0.507864    0.880785
     14          1           0        0.917289   -0.508054   -0.880660
     15          1           0       -0.527293    1.539748   -0.885155
     16          1           0       -0.528236    1.540017    0.882752
     17          1           0        1.967718    1.885753    0.887070
     18          1           0        1.968569    1.885588   -0.887019
     19          1           0        1.928885    4.148595   -0.000317
     20          1           0        0.527795    3.838186   -0.826690
     21          1           0        0.527192    3.838386    0.825105
 ---------------------------------------------------------------------
                    Distance matrix (angstroms):
                    1          2          3          4          5
     1  O    0.000000
     2  C    1.424120   0.000000
     3  C    2.362790   1.516754   0.000000
     4  C    3.751939   2.539113   1.534254   0.000000
     5  C    4.908559   3.902996   2.546390   1.534960   0.000000
     6  C    6.253393   5.090067   3.915945   2.551068   1.531310
     7  N    7.425054   6.389523   5.063509   3.894749   2.517263
     8  H    0.961379   1.966418   3.214767   4.482085   5.749162
     9  H    2.092530   1.100255   2.152615   2.777800   4.201556
    10  H    2.092534   1.100257   2.152618   2.777508   4.201470
    11  H    2.573359   2.134722   1.096069   2.169499   2.784599
    12  H    2.573665   2.134740   1.096069   2.169508   2.784438
    13  H    4.066239   2.775357   2.165685   1.097047   2.160638
    14  H    4.066122   2.775490   2.165670   1.097048   2.160649
    15  H    5.016446   4.183424   2.769735   2.161289   1.098544
    16  H    5.016856   4.183526   2.770039   2.161288   1.098544
    17  H    6.503722   5.272786   4.255753   2.833538   2.185250
    18  H    6.503443   5.272762   4.255583   2.833594   2.185239
    19  H    8.316604   7.208835   5.956159   4.675581   3.425595
    20  H    7.500576   6.560507   5.178707   4.167434   2.733958
    21  H    7.500922   6.560621   5.178954   4.167474   2.734075
                    6          7          8          9         10
     6  C    0.000000
     7  N    1.521559   0.000000
     8  H    7.024505   8.263535   0.000000
     9  H    5.223143   6.586416   2.356505   0.000000
    10  H    5.222755   6.586212   2.356625   1.780040   0.000000
    11  H    4.211794   5.189087   3.463195   3.049775   2.483109
    12  H    4.211892   5.189037   3.463357   2.482888   3.049796
    13  H    2.775665   4.184241   4.680839   2.560904   3.113050
    14  H    2.775380   4.184107   4.680843   3.113736   2.560725
    15  H    2.159310   2.740894   5.895729   4.726265   4.380813
    16  H    2.159315   2.740832   5.895996   4.380630   4.726283
    17  H    1.091015   2.109914   7.213009   5.175063   5.471142
    18  H    1.091015   2.109913   7.212840   5.471811   5.174643
    19  H    2.138615   1.025552   9.122979   7.338523   7.338162
    20  H    2.110887   1.024594   8.368038   6.917345   6.701384
    21  H    2.110892   1.024593   8.368285   6.701423   6.917260
                   11         12         13         14         15
    11  H    0.000000
    12  H    1.761709   0.000000
    13  H    3.073724   2.518937   0.000000
    14  H    2.518767   3.073721   1.761446   0.000000
    15  H    2.556023   3.105782   3.064918   2.506059   0.000000
    16  H    3.106525   2.556178   2.505794   3.064925   1.767908
    17  H    4.785842   4.447566   2.614578   3.155723   3.079867
    18  H    4.447046   4.785774   3.156281   2.614337   2.519710
    19  H    6.122976   6.123060   4.846167   4.845897   3.690777
    20  H    5.085364   5.363683   4.685527   4.363992   2.529713
    21  H    5.364213   5.085567   4.363942   4.685441   3.052977
                   16         17         18         19         20
    16  H    0.000000
    17  H    2.519789   0.000000
    18  H    3.079861   1.774089   0.000000
    19  H    3.690790   2.430929   2.430846   0.000000
    20  H    3.052700   2.970244   2.427367   1.655990   0.000000
    21  H    2.529773   2.427289   2.970245   1.655987   1.651795
                   21
    21  H    0.000000
 Stoichiometry    C5H14NO(1+)
 Framework group  C1[X(C5H14NO)]
 Deg. of freedom    57
 Full point group                 C1      NOp   1
 Largest Abelian subgroup         C1      NOp   1
 Largest concise Abelian subgroup C1      NOp   1
                         Standard orientation:                         
 ---------------------------------------------------------------------
 Center     Atomic      Atomic             Coordinates (Angstroms)
 Number     Number       Type             X           Y           Z
 ---------------------------------------------------------------------
      1          8           0        3.721145   -0.464950   -0.000290
      2          6           0        2.637018    0.458514    0.000176
      3          6           0        1.360648   -0.360888    0.000062
      4          6           0        0.098455    0.511352    0.000080
      5          6           0       -1.185552   -0.329736    0.000208
      6          6           0       -2.452543    0.530290   -0.000255
      7          7           0       -3.702804   -0.336882   -0.000009
      8          1           0        4.553162    0.016710   -0.000079
      9          1           0        2.661957    1.104585    0.890418
     10          1           0        2.661718    1.105210   -0.889621
     11          1           0        1.366074   -1.013057   -0.880854
     12          1           0        1.365996   -1.013227    0.880854
     13          1           0        0.101795    1.165498    0.880758
     14          1           0        0.101715    1.165379   -0.880688
     15          1           0       -1.189763   -0.982273   -0.883521
     16          1           0       -1.189985   -0.981662    0.884387
     17          1           0       -2.512775    1.162996    0.886519
     18          1           0       -2.512611    1.162254   -0.887570
     19          1           0       -4.567678    0.214255   -0.000433
     20          1           0       -3.718514   -0.943469   -0.825599
     21          1           0       -3.718787   -0.942622    0.826195
 ---------------------------------------------------------------------
 Rotational constants (GHZ):     12.6596356      0.7012945      0.6810690
 Standard basis: 6-311++G(d,p) (5D, 7F)
 There are   259 symmetry adapted cartesian basis functions of A   symmetry.
 There are   252 symmetry adapted basis functions of A   symmetry.
   252 basis functions,   378 primitive gaussians,   259 cartesian basis functions
    29 alpha electrons       29 beta electrons
       nuclear repulsion energy       318.2417166910 Hartrees.
 NAtoms=   21 NActive=   21 NUniq=   21 SFac= 1.00D+00 NAtFMM=   60 NAOKFM=F Big=F
 Integral buffers will be    131072 words long.
 Raffenetti 2 integral format.
 Two-electron integral symmetry is turned on.
 One-electron integrals computed using PRISM.
 NBasis=   252 RedAO= T EigKep=  7.25D-06  NBF=   252
 NBsUse=   252 1.00D-06 EigRej= -1.00D+00 NBFU=   252
 Initial guess from the checkpoint file:  "Anth_284.chk"
 B after Tr=     0.000000    0.000000    0.000000
         Rot=    1.000000    0.000005    0.000000    0.000267 Ang=   0.03 deg.
 ExpMin= 3.60D-02 ExpMax= 8.59D+03 ExpMxC= 1.30D+03 IAcc=3 IRadAn=         5 AccDes= 0.00D+00
 Harris functional with IExCor=  402 and IRadAn=       5 diagonalized for initial guess.
 HarFok:  IExCor=  402 AccDes= 0.00D+00 IRadAn=         5 IDoV= 1 UseB2=F ITyADJ=14
 ICtDFT=  3500011 ScaDFX=  1.000000  1.000000  1.000000  1.000000
 FoFCou: FMM=F IPFlag=           0 FMFlag=      100000 FMFlg1=           0
         NFxFlg=           0 DoJE=T BraDBF=F KetDBF=T FulRan=T
         wScrn=  0.000000 ICntrl=     500 IOpCl=  0 I1Cent=   200000004 NGrid=           0
         NMat0=    1 NMatS0=      1 NMatT0=    0 NMatD0=    1 NMtDS0=    0 NMtDT0=    0
 Petite list used in FoFCou.
 Keep R1 ints in memory in canonical form, NReq=517134184.
 Requested convergence on RMS density matrix=1.00D-08 within 128 cycles.
 Requested convergence on MAX density matrix=1.00D-06.
 Requested convergence on             energy=1.00D-06.
 No special actions if energy rises.
 SCF Done:  E(RB3LYP) =  -328.795543985     A.U. after   10 cycles
            NFock= 10  Conv=0.73D-08     -V/T= 2.0045
 Calling FoFJK, ICntrl=      2127 FMM=F ISym2X=0 I1Cent= 0 IOpClX= 0 NMat=1 NMatS=1 NMatT=0.
 ***** Axes restored to original set *****
 -------------------------------------------------------------------
 Center     Atomic                   Forces (Hartrees/Bohr)
 Number     Number              X              Y              Z
 -------------------------------------------------------------------
      1        8           0.002458667    0.001592983    0.000003388
      2        6           0.000016864   -0.002668500    0.000001239
      3        6          -0.000848751    0.005241996   -0.000001579
      4        6           0.002248621   -0.000733983    0.000001686
      5        6          -0.001107857    0.005554181   -0.000001151
      6        6          -0.000298023   -0.009130519    0.000000699
      7        7          -0.001126912    0.001444322   -0.000000765
      8        1          -0.000027945   -0.001061125    0.000000141
      9        1          -0.000780117   -0.000969609   -0.000700560
     10        1          -0.000783468   -0.000969503    0.000697844
     11        1           0.000142179   -0.000170310    0.000588761
     12        1           0.000142475   -0.000170721   -0.000588931
     13        1          -0.000047520   -0.000011553   -0.000561165
     14        1          -0.000049599   -0.000011618    0.000560820
     15        1           0.000258856   -0.000219077    0.000861015
     16        1           0.000258239   -0.000219574   -0.000861416
     17        1           0.000270371    0.001063917   -0.000128553
     18        1           0.000270336    0.001064107    0.000128969
     19        1          -0.000207934   -0.001145658    0.000000208
     20        1          -0.000393916    0.000760267    0.000159579
     21        1          -0.000394566    0.000759975   -0.000160228
 -------------------------------------------------------------------
 Cartesian Forces:  Max     0.009130519 RMS     0.001699902

 GradGradGradGradGradGradGradGradGradGradGradGradGradGradGradGradGradGrad
 Berny optimization.
 Using GEDIIS/GDIIS optimizer.
 FormGI is forming the generalized inverse of G from B-inverse, IUseBI=4.
 Internal  Forces:  Max     0.004346177 RMS     0.000962115
 Search for a local minimum.
 Step number   2 out of a maximum of  115
 All quantities printed in internal units (Hartrees-Bohrs-Radians)
 Mixed Optimization -- En-DIIS/RFO-DIIS
 Update second derivatives using D2CorX and points    1    2
 DE= -6.60D-03 DEPred=-7.22D-03 R= 9.14D-01
 TightC=F SS=  1.41D+00  RLast= 2.62D-01 DXNew= 5.0454D-01 7.8616D-01
 Trust test= 9.14D-01 RLast= 2.62D-01 DXMaxT set to 5.05D-01
 ITU=  1  0
 Use linear search instead of GDIIS.
     Eigenvalues ---    0.00267   0.00278   0.00319   0.00338   0.00418
     Eigenvalues ---    0.01510   0.03501   0.03513   0.03533   0.03743
     Eigenvalues ---    0.04784   0.04801   0.04818   0.04842   0.05321
     Eigenvalues ---    0.05481   0.05611   0.06120   0.07881   0.08199
     Eigenvalues ---    0.08270   0.08324   0.11432   0.11923   0.12114
     Eigenvalues ---    0.12165   0.12189   0.13556   0.15806   0.16000
     Eigenvalues ---    0.16000   0.16271   0.21444   0.21909   0.21923
     Eigenvalues ---    0.21958   0.23439   0.28406   0.28730   0.28824
     Eigenvalues ---    0.29663   0.31704   0.31937   0.31943   0.31949
     Eigenvalues ---    0.31973   0.31977   0.32085   0.32200   0.32287
     Eigenvalues ---    0.32307   0.32756   0.40414   0.40579   0.40746
     Eigenvalues ---    0.43931   0.55446
 RFO step:  Lambda=-4.16398439D-04 EMin= 2.67084751D-03
 Quartic linear search produced a step of -0.02452.
 Iteration  1 RMS(Cart)=  0.00729949 RMS(Int)=  0.00004554
 Iteration  2 RMS(Cart)=  0.00004675 RMS(Int)=  0.00002870
 Iteration  3 RMS(Cart)=  0.00000000 RMS(Int)=  0.00002870
 Variable       Old X    -DE/DX   Delta X   Delta X   Delta X     New X
                                 (Linear)    (Quad)   (Total)
    R1        2.69120  -0.00242  -0.00048  -0.00428  -0.00476   2.68643
    R2        1.81674   0.00105  -0.00006   0.00199   0.00193   1.81867
    R3        2.86625   0.00416   0.00044   0.01256   0.01300   2.87925
    R4        2.07918  -0.00073   0.00058  -0.00359  -0.00301   2.07617
    R5        2.07918  -0.00073   0.00058  -0.00359  -0.00301   2.07618
    R6        2.89932  -0.00071   0.00012  -0.00268  -0.00256   2.89676
    R7        2.07127  -0.00059   0.00094  -0.00405  -0.00311   2.06816
    R8        2.07127  -0.00059   0.00094  -0.00405  -0.00311   2.06816
    R9        2.90065   0.00034   0.00013   0.00085   0.00097   2.90163
   R10        2.07312  -0.00047   0.00088  -0.00354  -0.00267   2.07045
   R11        2.07312  -0.00047   0.00088  -0.00354  -0.00267   2.07045
   R12        2.89376  -0.00435   0.00012  -0.01483  -0.01471   2.87905
   R13        2.07595  -0.00089   0.00082  -0.00468  -0.00385   2.07209
   R14        2.07595  -0.00089   0.00082  -0.00468  -0.00385   2.07209
   R15        2.87533   0.00219  -0.00089   0.00877   0.00788   2.88321
   R16        2.06172  -0.00015   0.00106  -0.00298  -0.00193   2.05979
   R17        2.06172  -0.00015   0.00106  -0.00299  -0.00193   2.05979
   R18        1.93801  -0.00081   0.00090  -0.00409  -0.00319   1.93483
   R19        1.93620   0.00027   0.00095  -0.00160  -0.00065   1.93555
   R20        1.93620   0.00027   0.00095  -0.00160  -0.00065   1.93555
    A1        1.91129   0.00026   0.00024   0.00100   0.00124   1.91253
    A2        1.86534   0.00000   0.00097  -0.00268  -0.00170   1.86363
    A3        1.94312  -0.00076  -0.00163  -0.00394  -0.00554   1.93758
    A4        1.94312  -0.00076  -0.00163  -0.00394  -0.00554   1.93758
    A5        1.91385   0.00103   0.00084   0.00713   0.00795   1.92180
    A6        1.91385   0.00103   0.00084   0.00713   0.00795   1.92180
    A7        1.88463  -0.00047   0.00053  -0.00324  -0.00269   1.88194
    A8        1.96618   0.00054  -0.00020   0.00357   0.00337   1.96955
    A9        1.89372  -0.00021   0.00030  -0.00167  -0.00138   1.89234
   A10        1.89374  -0.00021   0.00030  -0.00167  -0.00138   1.89236
   A11        1.92021  -0.00007  -0.00027   0.00112   0.00085   1.92106
   A12        1.92022  -0.00007  -0.00027   0.00111   0.00084   1.92107
   A13        1.86680  -0.00002   0.00018  -0.00286  -0.00268   1.86412
   A14        1.95698  -0.00165  -0.00016  -0.00701  -0.00716   1.94982
   A15        1.91399   0.00051  -0.00012   0.00244   0.00232   1.91630
   A16        1.91397   0.00051  -0.00012   0.00245   0.00232   1.91629
   A17        1.90627   0.00055   0.00008   0.00235   0.00243   1.90870
   A18        1.90628   0.00055   0.00008   0.00235   0.00243   1.90871
   A19        1.86399  -0.00042   0.00027  -0.00234  -0.00208   1.86191
   A20        1.96532  -0.00342  -0.00034  -0.01535  -0.01568   1.94964
   A21        1.90564   0.00100   0.00006   0.00333   0.00339   1.90904
   A22        1.90564   0.00100   0.00006   0.00333   0.00339   1.90904
   A23        1.90730   0.00111   0.00006   0.00465   0.00470   1.91201
   A24        1.90731   0.00111   0.00006   0.00465   0.00470   1.91201
   A25        1.87020  -0.00066   0.00013   0.00010   0.00020   1.87040
   A26        1.93883  -0.00235  -0.00205  -0.00745  -0.00947   1.92936
   A27        1.95103   0.00122  -0.00018   0.01030   0.01001   1.96104
   A28        1.95101   0.00122  -0.00018   0.01031   0.01002   1.96103
   A29        1.85982   0.00012   0.00115  -0.00839  -0.00716   1.85266
   A30        1.85982   0.00012   0.00115  -0.00839  -0.00716   1.85266
   A31        1.89873  -0.00042   0.00019   0.00200   0.00211   1.90083
   A32        1.96782  -0.00150  -0.00140  -0.00647  -0.00783   1.95999
   A33        1.92824   0.00109  -0.00044   0.00800   0.00756   1.93580
   A34        1.92825   0.00109  -0.00044   0.00800   0.00756   1.93581
   A35        1.88062   0.00011   0.00075  -0.00186  -0.00107   1.87955
   A36        1.88062   0.00012   0.00075  -0.00185  -0.00107   1.87955
   A37        1.87497  -0.00094   0.00085  -0.00633  -0.00551   1.86946
    D1       -3.14142   0.00000   0.00000  -0.00001  -0.00001  -3.14143
    D2       -1.05184   0.00082   0.00065   0.00475   0.00543  -1.04641
    D3        1.05218  -0.00082  -0.00065  -0.00476  -0.00544   1.04673
    D4       -3.14127   0.00000   0.00000  -0.00013  -0.00013  -3.14140
    D5       -1.01087   0.00012  -0.00027   0.00246   0.00219  -1.00868
    D6        1.01148  -0.00012   0.00027  -0.00271  -0.00244   1.00904
    D7        1.03358   0.00033   0.00089   0.00217   0.00306   1.03664
    D8       -3.11920   0.00045   0.00062   0.00475   0.00538  -3.11382
    D9       -1.09686   0.00021   0.00115  -0.00041   0.00075  -1.09610
   D10       -1.03293  -0.00033  -0.00088  -0.00243  -0.00332  -1.03625
   D11        1.09747  -0.00021  -0.00115   0.00016  -0.00100   1.09647
   D12        3.11982  -0.00045  -0.00062  -0.00501  -0.00563   3.11418
   D13       -3.14142   0.00000   0.00000  -0.00006  -0.00006  -3.14148
   D14       -1.02063  -0.00005  -0.00009  -0.00006  -0.00015  -1.02078
   D15        1.02096   0.00004   0.00009  -0.00006   0.00004   1.02100
   D16        1.02639  -0.00006  -0.00005  -0.00113  -0.00118   1.02521
   D17       -3.13600  -0.00010  -0.00014  -0.00114  -0.00128  -3.13728
   D18       -1.09441  -0.00001   0.00004  -0.00113  -0.00109  -1.09550
   D19       -1.02601   0.00006   0.00005   0.00102   0.00107  -1.02493
   D20        1.09479   0.00001  -0.00004   0.00101   0.00097   1.09576
   D21        3.13638   0.00010   0.00014   0.00102   0.00116   3.13754
   D22       -3.14125   0.00000   0.00000  -0.00022  -0.00022  -3.14147
   D23       -1.01942  -0.00017  -0.00011  -0.00216  -0.00227  -1.02169
   D24        1.02009   0.00017   0.00011   0.00173   0.00184   1.02193
[...]
     9  H   -0.058161   0.352769   0.004317  -0.037747   0.001058   0.001682
    10  H   -0.058186   0.352979   0.004118  -0.037737   0.001032   0.001669
    11  H    0.007381  -0.035166   0.394305  -0.017816  -0.023868  -0.004290
    12  H    0.007391  -0.035006   0.394146  -0.017794  -0.023898  -0.004311
    13  H   -0.002076   0.006136  -0.059804   0.457336  -0.055237  -0.003521
    14  H   -0.002073   0.006181  -0.059876   0.457356  -0.055237  -0.003525
    15  H    0.001352  -0.009393   0.003733  -0.079467   0.468223  -0.048971
    16  H    0.001353  -0.009393   0.003724  -0.079461   0.468218  -0.048969
    17  H    0.000044   0.000747  -0.000968  -0.022319  -0.024102   0.380365
    18  H    0.000044   0.000744  -0.000960  -0.022324  -0.024098   0.380363
    19  H   -0.000005  -0.000360  -0.001037  -0.000022   0.018092  -0.023557
    20  H    0.000000   0.000219  -0.000023   0.004312   0.008567  -0.015905
    21  H    0.000000   0.000219  -0.000022   0.004312   0.008569  -0.015908
               7          8          9         10         11         12
     1  O   -0.000068   0.196121  -0.058161  -0.058186   0.007381   0.007391
     2  C   -0.004748   0.159807   0.352769   0.352979  -0.035166  -0.035006
     3  C   -0.009854  -0.133324   0.004317   0.004118   0.394305   0.394146
     4  C   -0.021278   0.010332  -0.037747  -0.037737  -0.017816  -0.017794
     5  C   -0.032447  -0.007672   0.001058   0.001032  -0.023868  -0.023898
     6  C    0.018649  -0.000192   0.001682   0.001669  -0.004290  -0.004311
     7  N    6.249276   0.000010   0.000011   0.000010  -0.000806  -0.000806
     8  H    0.000010   0.523158  -0.005242  -0.005227   0.001383   0.001386
     9  H    0.000011  -0.005242   0.728083  -0.140582   0.046057  -0.058378
    10  H    0.000010  -0.005227  -0.140582   0.728097  -0.058367   0.046066
    11  H   -0.000806   0.001383   0.046057  -0.058367   0.645300  -0.105769
    12  H   -0.000806   0.001386  -0.058378   0.046066  -0.105769   0.645338
    13  H    0.000436   0.000196   0.034194  -0.022546   0.033579  -0.046774
    14  H    0.000438   0.000195  -0.022543   0.034196  -0.046770   0.033581
    15  H    0.000486  -0.000232  -0.000118   0.000479   0.006545  -0.002785
    16  H    0.000490  -0.000232   0.000481  -0.000119  -0.002781   0.006542
    17  H   -0.012364   0.000003  -0.002211   0.001987  -0.003200   0.004738
    18  H   -0.012364   0.000003   0.001987  -0.002211   0.004737  -0.003200
    19  H    0.332096   0.000000   0.000000   0.000000  -0.000047  -0.000047
    20  H    0.348685   0.000000   0.000002   0.000026  -0.000168   0.000303
    21  H    0.348685   0.000000   0.000026   0.000002   0.000303  -0.000168
              13         14         15         16         17         18
     1  O   -0.002076  -0.002073   0.001352   0.001353   0.000044   0.000044
     2  C    0.006136   0.006181  -0.009393  -0.009393   0.000747   0.000744
     3  C   -0.059804  -0.059876   0.003733   0.003724  -0.000968  -0.000960
     4  C    0.457336   0.457356  -0.079467  -0.079461  -0.022319  -0.022324
     5  C   -0.055237  -0.055237   0.468223   0.468218  -0.024102  -0.024098
     6  C   -0.003521  -0.003525  -0.048971  -0.048969   0.380365   0.380363
     7  N    0.000436   0.000438   0.000486   0.000490  -0.012364  -0.012364
     8  H    0.000196   0.000195  -0.000232  -0.000232   0.000003   0.000003
     9  H    0.034194  -0.022543  -0.000118   0.000481  -0.002211   0.001987
    10  H   -0.022546   0.034196   0.000479  -0.000119   0.001987  -0.002211
    11  H    0.033579  -0.046770   0.006545  -0.002781  -0.003200   0.004737
    12  H   -0.046774   0.033581  -0.002785   0.006542   0.004738  -0.003200
    13  H    0.644891  -0.117813   0.025525  -0.036173   0.005843  -0.000823
    14  H   -0.117813   0.644890  -0.036173   0.025525  -0.000822   0.005843
    15  H    0.025525  -0.036173   0.628342  -0.110349   0.022636  -0.029183
    16  H   -0.036173   0.025525  -0.110349   0.628342  -0.029183   0.022636
    17  H    0.005843  -0.000822   0.022636  -0.029183   0.490502  -0.046950
    18  H   -0.000823   0.005843  -0.029183   0.022636  -0.046950   0.490501
    19  H    0.000174   0.000174   0.000310   0.000311   0.000321   0.000322
    20  H   -0.001387   0.001635   0.002008   0.000521   0.004925  -0.011124
    21  H    0.001635  -0.001387   0.000522   0.002006  -0.011124   0.004925
              19         20         21
     1  O   -0.000005   0.000000   0.000000
     2  C   -0.000360   0.000219   0.000219
     3  C   -0.001037  -0.000023  -0.000022
     4  C   -0.000022   0.004312   0.004312
     5  C    0.018092   0.008567   0.008569
     6  C   -0.023557  -0.015905  -0.015908
     7  N    0.332096   0.348685   0.348685
     8  H    0.000000   0.000000   0.000000
     9  H    0.000000   0.000002   0.000026
    10  H    0.000000   0.000026   0.000002
    11  H   -0.000047  -0.000168   0.000303
    12  H   -0.000047   0.000303  -0.000168
    13  H    0.000174  -0.001387   0.001635
    14  H    0.000174   0.001635  -0.001387
    15  H    0.000310   0.002008   0.000522
    16  H    0.000311   0.000521   0.002006
    17  H    0.000321   0.004925  -0.011124
    18  H    0.000322  -0.011124   0.004925
    19  H    0.345979  -0.011807  -0.011806
    20  H   -0.011807   0.362729  -0.027925
    21  H   -0.011806  -0.027925   0.362729
 Mulliken charges:
               1
     1  O   -0.253838
     2  C   -0.344133
     3  C   -0.343702
     4  C   -0.047336
     5  C   -0.201758
     6  C   -0.579179
     7  N   -0.204538
     8  H    0.259527
     9  H    0.154315
    10  H    0.154313
    11  H    0.159459
    12  H    0.159446
    13  H    0.136208
    14  H    0.136205
    15  H    0.156510
    16  H    0.156511
    17  H    0.241133
    18  H    0.241133
    19  H    0.350909
    20  H    0.334406
    21  H    0.334407
 Sum of Mulliken charges =   1.00000
 Mulliken charges with hydrogens summed into heavy atoms:
               1
     1  O    0.005689
     2  C   -0.035505
     3  C   -0.024798
     4  C    0.225077
     5  C    0.111264
     6  C   -0.096913
     7  N    0.815185
 Electronic spatial extent (au):  <R**2>=           1608.0339
 Charge=              1.0000 electrons
 Dipole moment (field-independent basis, Debye):
    X=            -14.2446    Y=              0.6723    Z=              0.0002  Tot=             14.2605
 Quadrupole moment (field-independent basis, Debye-Ang):
   XX=             20.9788   YY=            -42.1779   ZZ=            -41.5528
   XY=             10.9849   XZ=              0.0011   YZ=              0.0000
 Traceless Quadrupole moment (field-independent basis, Debye-Ang):
   XX=             41.8961   YY=            -21.2606   ZZ=            -20.6355
   XY=             10.9849   XZ=              0.0011   YZ=              0.0000
 Octapole moment (field-independent basis, Debye-Ang**2):
  XXX=           -194.4777  YYY=             -3.2792  ZZZ=              0.0001  XYY=            -17.7789
  XXY=              6.7320  XXZ=              0.0041  XZZ=            -13.4358  YZZ=             -1.7809
  YYZ=             -0.0001  XYZ=             -0.0001
 Hexadecapole moment (field-independent basis, Debye-Ang**3):
 XXXX=           -470.9933 YYYY=           -146.7426 ZZZZ=            -79.6485 XXXY=            155.8731
 XXXZ=              0.0210 YYYX=             11.7021 YYYZ=              0.0006 ZZZX=              0.0002
 ZZZY=             -0.0002 XXYY=           -290.5880 XXZZ=           -277.4068 YYZZ=            -31.4479
 XXYZ=             -0.0006 YYXZ=              0.0003 ZZXY=              9.5149
 N-N= 3.183701135610D+02 E-N=-1.392756965572D+03  KE= 3.273224553255D+02

 **********************************************************************

            Electrostatic Properties Using The SCF Density

 **********************************************************************

       Atomic Center    1 is at   3.714282 -0.470026 -0.000039
       Atomic Center    2 is at   2.640563  0.460645  0.000010
       Atomic Center    3 is at   1.353152 -0.355585  0.000023
       Atomic Center    4 is at   0.092200  0.515142  0.000001
       Atomic Center    5 is at  -1.188200 -0.336932  0.000013
       Atomic Center    6 is at  -2.437275  0.531692 -0.000014
       Atomic Center    7 is at  -3.698830 -0.336492 -0.000004
       Atomic Center    8 is at   4.552529  0.002669  0.000061
       Atomic Center    9 is at   2.677823  1.106388  0.888623
       Atomic Center   10 is at   2.677778  1.106426 -0.888578
       Atomic Center   11 is at   1.360748 -1.007766 -0.879594
       Atomic Center   12 is at   1.360738 -1.007741  0.879658
       Atomic Center   13 is at   0.091877  1.169312  0.879596
       Atomic Center   14 is at   0.091885  1.169275 -0.879621
       Atomic Center   15 is at  -1.189857 -0.987453 -0.882980
       Atomic Center   16 is at  -1.189868 -0.987415  0.883034
       Atomic Center   17 is at  -2.507977  1.161807  0.887505
       Atomic Center   18 is at  -2.507965  1.161767 -0.887563
       Atomic Center   19 is at  -4.554547  0.226818 -0.000032
       Atomic Center   20 is at  -3.724111 -0.944127 -0.824836
       Atomic Center   21 is at  -3.724133 -0.944077  0.824864
 -----------------------------------------------------------------

              Electrostatic Properties (Atomic Units)

 -----------------------------------------------------------------
    Center     Electric         -------- Electric Field --------
               Potential          X             Y             Z
 -----------------------------------------------------------------
    1 Atom    -22.281390     -0.005531     -0.047367     -0.000006
    2 Atom    -14.627738     -0.007608      0.005099      0.000000
    3 Atom    -14.664312      0.002606      0.001012      0.000000
    4 Atom    -14.632396      0.004241     -0.001465      0.000000
    5 Atom    -14.599577      0.006003      0.001177      0.000000
    6 Atom    -14.527220      0.013462      0.004513      0.000000
    7 Atom    -18.069952      0.007103      0.005144      0.000000
    8 Atom     -0.917145      0.023271      0.011063      0.000002
    9 Atom     -1.027867      0.001488      0.010124      0.014546
   10 Atom     -1.027869      0.001487      0.010124     -0.014545
   11 Atom     -1.017013      0.000596     -0.011017     -0.014420
   12 Atom     -1.017014      0.000596     -0.011017      0.014420
   13 Atom     -0.989238      0.000320      0.010756      0.014436
   14 Atom     -0.989238      0.000320      0.010756     -0.014436
   15 Atom     -0.952632      0.000669     -0.010696     -0.014454
   16 Atom     -0.952632      0.000669     -0.010696      0.014454
   17 Atom     -0.907034     -0.000920      0.011154      0.015274
   18 Atom     -0.907034     -0.000920      0.011153     -0.015274
   19 Atom     -0.754007     -0.017491      0.011618     -0.000001
   20 Atom     -0.754868     -0.000594     -0.012386     -0.016865
   21 Atom     -0.754868     -0.000595     -0.012385      0.016865
 -----------------------------------------------------------------
 -----------------------------------------------------
    Center         ---- Electric Field Gradient ----
                     XX            YY            ZZ
 -----------------------------------------------------
    1 Atom    -1238.465246  -1236.914793  -1234.777637
    2 Atom     -500.544280   -500.433589   -500.165293
    3 Atom     -500.414405   -500.378552   -500.269492
    4 Atom     -500.365548   -500.294734   -500.205101
    5 Atom     -500.402020   -500.355912   -500.254877
    6 Atom     -500.945375   -500.681065   -500.370558
    7 Atom     -812.353312   -812.370295   -812.371127
    8 Atom       -2.088568     -1.723298     -1.502881
    9 Atom       -1.732147     -1.865690     -1.999663
   10 Atom       -1.732145     -1.865708     -1.999646
   11 Atom       -1.700427     -1.845994     -1.981175
   12 Atom       -1.700429     -1.845984     -1.981190
   13 Atom       -1.707221     -1.849433     -1.980972
   14 Atom       -1.707222     -1.849416     -1.980990
   15 Atom       -1.700340     -1.837020     -1.972155
   16 Atom       -1.700340     -1.837002     -1.972173
   17 Atom       -1.700488     -1.825774     -1.974910
   18 Atom       -1.700487     -1.825755     -1.974929
   19 Atom       -1.915053     -1.719332     -1.559240
   20 Atom       -1.560434     -1.738288     -1.897127
   21 Atom       -1.560435     -1.738259     -1.897157
 -----------------------------------------------------
 -----------------------------------------------------
    Center         ---- Electric Field Gradient ----
                     XY            XZ            YZ
 -----------------------------------------------------
    1 Atom        0.331862     -0.000159     -0.000214
    2 Atom        0.239955      0.000016     -0.000013
    3 Atom        0.051494     -0.000001      0.000003
    4 Atom       -0.092358      0.000000      0.000001
    5 Atom        0.106795     -0.000003      0.000003
    6 Atom       -0.419703      0.000005      0.000004
    7 Atom        0.017004      0.000000      0.000000
    8 Atom       -0.285180     -0.000065     -0.000041
    9 Atom       -0.003039     -0.013408     -0.205826
   10 Atom       -0.003029      0.013394      0.205831
   11 Atom       -0.001671     -0.002111     -0.211650
   12 Atom       -0.001673      0.002113      0.211647
   13 Atom       -0.000062      0.004092     -0.211558
   14 Atom       -0.000064     -0.004089      0.211553
   15 Atom       -0.001116     -0.006844     -0.209160
   16 Atom       -0.001118      0.006848      0.209154
   17 Atom        0.007751      0.030514     -0.205931
   18 Atom        0.007747     -0.030511      0.205925
   19 Atom        0.239864     -0.000012      0.000008
   20 Atom       -0.005578     -0.007648     -0.245129
   21 Atom       -0.005584      0.007658      0.245119
 -----------------------------------------------------
 -----------------------------------------------------
    Center         ---- Electric Field Gradient ----
                   ----       Eigenvalues       ----
 -----------------------------------------------------
    1 Atom    -1238.533292  -1236.846747  -1234.777637
    2 Atom     -500.735189   -500.242679   -500.165293
    3 Atom     -500.451004   -500.341953   -500.269492
    4 Atom     -500.429053   -500.231229   -500.205101
    5 Atom     -500.488221   -500.269711   -500.254877
    6 Atom     -501.253237   -500.373202   -500.370558
    7 Atom     -812.380810   -812.371127   -812.342798
    8 Atom       -2.244582     -1.567284     -1.502881
    9 Atom       -2.149512     -1.733467     -1.714522
   10 Atom       -2.149510     -1.733466     -1.714524
   11 Atom       -2.135782     -1.700412     -1.691403
   12 Atom       -2.135785     -1.700413     -1.691404
   13 Atom       -2.136773     -1.707635     -1.693219
   14 Atom       -2.136773     -1.707635     -1.693219
   15 Atom       -2.124480     -1.700858     -1.684177
   16 Atom       -2.124480     -1.700857     -1.684177
   17 Atom       -2.121417     -1.703929     -1.675825
   18 Atom       -2.121417     -1.703929     -1.675825
   19 Atom       -2.076251     -1.559240     -1.558134
   20 Atom       -2.075555     -1.560261     -1.560033
   21 Atom       -2.075556     -1.560261     -1.560033
 -----------------------------------------------------
 -----------------------------------------------------
    Center         ---- Electric Field Gradient ----
                       ( tensor representation )
                   3XX-RR        3YY-RR        3ZZ-RR
 -----------------------------------------------------
    1 Atom       -1.746021     -0.195568      1.941589
    2 Atom       -0.163226     -0.052535      0.215761
    3 Atom       -0.060256     -0.024402      0.084658
    4 Atom       -0.077087     -0.006273      0.083360
    5 Atom       -0.064417     -0.018309      0.082726
    6 Atom       -0.279709     -0.015399      0.295108
    7 Atom        0.011599     -0.005384     -0.006215
    8 Atom       -0.316986      0.048285      0.268701
    9 Atom        0.133687      0.000143     -0.133830
   10 Atom        0.133688      0.000125     -0.133813
   11 Atom        0.142105     -0.003462     -0.138643
   12 Atom        0.142105     -0.003450     -0.138656
   13 Atom        0.138654     -0.003558     -0.135096
   14 Atom        0.138654     -0.003540     -0.135114
   15 Atom        0.136165     -0.000515     -0.135650
   16 Atom        0.136165     -0.000497     -0.135668
   17 Atom        0.133236      0.007950     -0.141186
   18 Atom        0.133237      0.007968     -0.141205
   19 Atom       -0.183844      0.011876      0.171968
   20 Atom        0.171515     -0.006338     -0.165177
   21 Atom        0.171515     -0.006309     -0.165207
 -----------------------------------------------------
 -----------------------------------------------------
    Center         ---- Electric Field Gradient ----
                       ( tensor representation )
                   ----       Eigenvalues       ----
 -----------------------------------------------------
    1 Atom       -1.814067     -0.127522      1.941589
    2 Atom       -0.354135      0.138375      0.215761
    3 Atom       -0.096854      0.012196      0.084658
    4 Atom       -0.140592      0.057232      0.083360
    5 Atom       -0.150618      0.067892      0.082726
    6 Atom       -0.587571      0.292464      0.295108
    7 Atom       -0.015898     -0.006215      0.022114
    8 Atom       -0.473000      0.204299      0.268701
    9 Atom       -0.283678      0.132367      0.151311
   10 Atom       -0.283677      0.132367      0.151310
   11 Atom       -0.293250      0.142120      0.151129
   12 Atom       -0.293251      0.142121      0.151130
   13 Atom       -0.290897      0.138240      0.152657
   14 Atom       -0.290897      0.138240      0.152657
   15 Atom       -0.287975      0.135647      0.152328
   16 Atom       -0.287975      0.135647      0.152328
   17 Atom       -0.287694      0.129794      0.157899
   18 Atom       -0.287694      0.129794      0.157899
   19 Atom       -0.345043      0.171968      0.173074
   20 Atom       -0.343605      0.171689      0.171917
   21 Atom       -0.343606      0.171689      0.171917
 -----------------------------------------------------

 Test job not archived.
 1|1|UNPC-NP-ALMACH|FOpt|RB3LYP|6-311++G(d,p)|C5H14N1O1(1+)|HERA|04-Aug
 -2018|0||# RB3LYP/6-311++G** Opt Test prop=EFG||C5NH14O||1,1|O,-2.0338
 993731,-3.1554401453,-0.0020114123|C,-0.7497983335,-2.5470776297,-0.00
 10510181|C,-0.9788725067,-1.040032403,-0.0014442446|C,0.3257073469,-0.
 23614454,-0.0005673783|C,0.0609981304,1.2789077965,-0.0009902985|C,1.3
 588723072,2.0727699268,-0.000123469|N,1.0718323968,3.5770547483,-0.000
 5632337|H,-1.9385388794,-4.1130438137,-0.0016932114|H,-0.1743515471,-2
 .8409391108,0.8880556548|H,-0.1729106027,-2.8411803728,-0.8891446158|H
 ,-1.5782735388,-0.7846410674,-0.8815679346|H,-1.5796206603,-0.78437766
 37,0.8776836093|H,0.9240008594,-0.4989942498,0.8795347825|H,0.92533833
 19,-0.4992513847,-0.8796817407|H,-0.5331563954,1.5421012932,-0.8844868
 612|H,-0.5344963174,1.5423616385,0.8815259939|H,1.9634647225,1.8840301
 02,0.8878969912|H,1.9648100439,1.8837680959,-0.8871707366|H,1.93189990
 9,4.1336988718,-0.0000038302|H,0.5263994638,3.8446226563,-0.825861792|
 H,0.5251656427,3.8448712515,0.8238377453||Version=EM64W-G09RevD.01|Sta
 te=1-A|HF=-328.7957917|RMSD=5.691e-009|RMSF=3.917e-005|Dipole=2.497647
 7,5.0238933,0.0012745|Quadrupole=-14.2190414,29.5610165,-15.341975,11.
 7783615,-0.001226,0.0017129|PG=C01 [X(C5H14N1O1)]||@


 NOT WHAT WE DID SHALL BE THE TEST
 WHEN ACT AND WILL ARE DONE,
 BUT WHAT OUR LORD INFERS WE WOULD-
 HAD WE DIVINER BEEN.
           EMILY DICKINSON  POEMS NO. CLXXV
 Job cpu time:       0 days  0 hours  2 minutes 40.0 seconds.
 File lengths (MBytes):  RWF=     30 Int=      0 D2E=      0 Chk=      6 Scr=      1
 Normal termination of Gaussian 09 at Sat Aug 04 00:13:28 2018.
