 Entering Link 1 = C:\G09W\l1.exe PID=      5804.
  
 Copyright (c) 1988,1990,1992,1993,1995,1998,2003,2009,2013,
            Gaussian, Inc.  All Rights Reserved.
  
 This is part of the Gaussian(R) 09 program.  It is based on
 the Gaussian(R) 03 system (copyright 2003, Gaussian, Inc.),
 the Gaussian(R) 98 system (copyright 1998, Gaussian, Inc.),
 the Gaussian(R) 94 system (copyright 1995, Gaussian, Inc.),
 the Gaussian 92(TM) system (copyright 1992, Gaussian, Inc.),
 the Gaussian 90(TM) system (copyright 1990, Gaussian, Inc.),
 the Gaussian 88(TM) system (copyright 1988, Gaussian, Inc.),
 the Gaussian 86(TM) system (copyright 1986, Carnegie Mellon
 University), and the Gaussian 82(TM) system (copyright 1983,
 Carnegie Mellon University). Gaussian is a federally registered
 trademark of Gaussian, Inc.
  
 This software contains proprietary and confidential information,
 including trade secrets, belonging to Gaussian, Inc.
  
 This software is provided under written license and may be
 used, copied, transmitted, or stored only in accord with that
 written license.
  
 The following legend is applicable only to US Government
 contracts under FAR:
  
                    RESTRICTED RIGHTS LEGEND
  
 Use, reproduction and disclosure by the US Government is
 subject to restrictions as set forth in subparagraphs (a)
 and (c) of the Commercial Computer Software - Restricted
 Rights clause in FAR 52.227-19.
  
 Gaussian, Inc.
 340 Quinnipiac St., Bldg. 40, Wallingford CT 06492
  
  
 ---------------------------------------------------------------
 Warning -- This program may not be used in any manner that
 competes with the business of Gaussian, Inc. or will provide
 assistance to any competitor of Gaussian, Inc.  The licensee
 of this program is prohibited from giving any competitor of
 Gaussian, Inc. access to this program.  By using this program,
 the user acknowledges that Gaussian, Inc. is engaged in the
 business of creating and licensing software in the field of
 computational chemistry and represents and warrants to the
 licensee that it is not a competitor of Gaussian, Inc. and that
 it will not use this program in any manner prohibited above.
 ---------------------------------------------------------------
  

 Cite this work as:
 Gaussian 09, Revision D.01,
 M. J. Frisch, G. W. Trucks, H. B. Schlegel, G. E. Scuseria, 
 M. A. Robb, J. R. Cheeseman, G. Scalmani, V. Barone, B. Mennucci, 
 G. A. Petersson, H. Nakatsuji, M. Caricato, X. Li, H. P. Hratchian, 
 A. F. Izmaylov, J. Bloino, G. Zheng, J. L. Sonnenberg, M. Hada, 
 M. Ehara, K. Toyota, R. Fukuda, J. Hasegawa, M. Ishida, T. Nakajima, 
 Y. Honda, O. Kitao, H. Nakai, T. Vreven, J. A. Montgomery, Jr., 
 J. E. Peralta, F. Ogliaro, M. Bearpark, J. J. Heyd, E. Brothers, 
 K. N. Kudin, V. N. Staroverov, T. Keith, R. Kobayashi, J. Normand, 
 K. Raghavachari, A. Rendell, J. C. Burant, S. S. Iyengar, J. Tomasi, 
 M. Cossi, N. Rega, J. M. Millam, M. Klene, J. E. Knox, J. B. Cross, 
 V. Bakken, C. Adamo, J. Jaramillo, R. Gomperts, R. E. Stratmann, 
 O. Yazyev, A. J. Austin, R. Cammi, C. Pomelli, J. W. Ochterski, 
 R. L. Martin, K. Morokuma, V. G. Zakrzewski, G. A. Voth, 
 P. Salvador, J. J. Dannenberg, S. Dapprich, A. D. Daniels, 
 O. Farkas, J. B. Foresman, J. V. Ortiz, J. Cioslowski, 
 and D. J. Fox, Gaussian, Inc., Wallingford CT, 2013.
 
 ******************************************
 Gaussian 09:  EM64W-G09RevD.01 13-Apr-2013
                27-Aug-2018 
 ******************************************
 %Chk=Anth_285.chk
 %Mem=64GB
 %NProcShared=20
 Will use up to   20 processors via shared memory.
 -------------------------------------
 # RB3LYP/6-311++G** Opt Test prop=EFG
 -------------------------------------
 1/14=-1,18=20,19=15,26=3,38=1/1,3;
 2/9=110,12=2,17=6,18=5,40=1/2;
 3/5=4,6=6,7=1111,11=2,16=1,25=1,30=1,71=1,74=-5,116=1/1,2,3;
 4//1;
 5/5=2,38=5/2;
 6/7=2,8=2,9=2,10=2,14=1,28=1/1,2;
 7//1,2,3,16;
 1/14=-1,18=20,19=15,26=3/3(2);
 2/9=110/2;
 99//99;
 2/9=110/2;
 3/5=4,6=6,7=1111,11=2,16=1,25=1,30=1,71=1,74=-5,116=1/1,2,3;
 4/5=5,16=3,69=1/1;
 5/5=2,38=5/2;
 7//1,2,3,16;
 1/14=-1,18=20,19=15,26=3/3(-5);
 2/9=110/2;
 6/7=2,8=2,9=2,10=2,14=1,19=2,28=1/1,2;
 99/9=1/99;
 -------
 C12NH28
 -------
 Symbolic Z-matrix:
 Charge =  1 Multiplicity = 1
 C                    -3.29979  -5.57594  -0.0112 
 C                    -1.98649  -4.78243  -0.02755 
 C                    -2.23456  -3.26555  -0.02311 
 C                    -0.92049  -2.46761  -0.03446 
 C                    -1.16855  -0.95036  -0.02826 
 C                     0.14586  -0.15287  -0.0317 
 C                    -0.10218   1.36476  -0.02235 
 C                     1.21338   2.16536  -0.01871 
 C                     0.94362   3.68097  -0.00745 
 N                     2.21017   4.53227   0.00036 
 C                     3.05463   4.28841  -1.23874 
 C                     1.78711   5.9949    0.00992 
 C                     3.05095   4.27136   1.23856 
 H                    -3.10403  -6.67303  -0.01501 
 H                    -3.89921  -5.34213   0.89823 
 H                    -3.92303  -5.33997  -0.90389 
 H                    -1.39936  -5.06261  -0.93475 
 H                    -1.37659  -5.06425   0.86394 
 H                    -2.826    -2.99143   0.88267 
 H                    -2.8438   -2.98859  -0.91619 
 H                    -0.32909  -2.7417   -0.94031 
 H                    -0.31191  -2.74602   0.85857 
 H                    -1.76378  -0.67711   0.87528 
 H                    -1.77316  -0.6708   -0.92358 
 H                     0.74102  -0.42522  -0.93555 
 H                     0.75027  -0.43413   0.86328 
 H                    -0.70235   1.63348   0.87946 
 H                    -0.70481   1.64449  -0.91912 
 H                     1.79474   1.87313  -0.92307 
 H                     1.79742   1.86046   0.8797 
 H                     0.32643   3.92323   0.89014 
 H                     0.32808   3.93662  -0.90245 
 H                     3.92303   4.98478  -1.27274 
 H                     3.47413   3.25905  -1.26094 
 H                     2.45886   4.44282  -2.16678 
 H                     2.67041   6.67303   0.01608 
 H                     1.1767    6.23222   0.9107 
 H                     1.17961   6.24478  -0.88943 
 H                     2.45217   4.41235   2.16678 
 H                     3.47106   3.24206   1.24776 
 H                     3.91876   4.96776   1.28519 
 

 GradGradGradGradGradGradGradGradGradGradGradGradGradGradGradGradGradGrad
 Berny optimization.
 Initialization pass.
                           ----------------------------
                           !    Initial Parameters    !
                           ! (Angstroms and Degrees)  !
 --------------------------                            --------------------------
 ! Name  Definition              Value          Derivative Info.                !
 --------------------------------------------------------------------------------
 ! R1    R(1,2)                  1.5345         estimate D2E/DX2                !
 ! R2    R(1,14)                 1.1144         estimate D2E/DX2                !
 ! R3    R(1,15)                 1.114          estimate D2E/DX2                !
 ! R4    R(1,16)                 1.114          estimate D2E/DX2                !
 ! R5    R(2,3)                  1.537          estimate D2E/DX2                !
 ! R6    R(2,17)                 1.1163         estimate D2E/DX2                !
 ! R7    R(2,18)                 1.1163         estimate D2E/DX2                !
 ! R8    R(3,4)                  1.5374         estimate D2E/DX2                !
 ! R9    R(3,19)                 1.116          estimate D2E/DX2                !
 ! R10   R(3,20)                 1.116          estimate D2E/DX2                !
 ! R11   R(4,5)                  1.5374         estimate D2E/DX2                !
 ! R12   R(4,21)                 1.116          estimate D2E/DX2                !
 ! R13   R(4,22)                 1.116          estimate D2E/DX2                !
 ! R14   R(5,6)                  1.5374         estimate D2E/DX2                !
 ! R15   R(5,23)                 1.116          estimate D2E/DX2                !
 ! R16   R(5,24)                 1.1159         estimate D2E/DX2                !
 ! R17   R(6,7)                  1.5378         estimate D2E/DX2                !
 ! R18   R(6,25)                 1.1159         estimate D2E/DX2                !
 ! R19   R(6,26)                 1.116          estimate D2E/DX2                !
 ! R20   R(7,8)                  1.54           estimate D2E/DX2                !
 ! R21   R(7,27)                 1.1161         estimate D2E/DX2                !
 ! R22   R(7,28)                 1.1161         estimate D2E/DX2                !
 ! R23   R(8,9)                  1.5395         estimate D2E/DX2                !
 ! R24   R(8,29)                 1.1141         estimate D2E/DX2                !
 ! R25   R(8,30)                 1.1141         estimate D2E/DX2                !
 ! R26   R(9,10)                 1.5261         estimate D2E/DX2                !
 ! R27   R(9,31)                 1.1159         estimate D2E/DX2                !
 ! R28   R(9,32)                 1.1159         estimate D2E/DX2                !
 ! R29   R(10,11)                1.5192         estimate D2E/DX2                !
 ! R30   R(10,12)                1.5226         estimate D2E/DX2                !
 ! R31   R(10,13)                1.5192         estimate D2E/DX2                !
 ! R32   R(11,33)                1.1136         estimate D2E/DX2                !
 ! R33   R(11,34)                1.1118         estimate D2E/DX2                !
 ! R34   R(11,35)                1.1136         estimate D2E/DX2                !
 ! R35   R(12,36)                1.1136         estimate D2E/DX2                !
 ! R36   R(12,37)                1.1137         estimate D2E/DX2                !
 ! R37   R(12,38)                1.1137         estimate D2E/DX2                !
 ! R38   R(13,39)                1.1136         estimate D2E/DX2                !
 ! R39   R(13,40)                1.1118         estimate D2E/DX2                !
 ! R40   R(13,41)                1.1137         estimate D2E/DX2                !
 ! A1    A(2,1,14)             111.0196         estimate D2E/DX2                !
 ! A2    A(2,1,15)             111.1421         estimate D2E/DX2                !
 ! A3    A(2,1,16)             111.1455         estimate D2E/DX2                !
 ! A4    A(14,1,15)            107.6933         estimate D2E/DX2                !
 ! A5    A(14,1,16)            107.7015         estimate D2E/DX2                !
 ! A6    A(15,1,16)            107.9805         estimate D2E/DX2                !
 ! A7    A(1,2,3)              111.8493         estimate D2E/DX2                !
 ! A8    A(1,2,17)             109.208          estimate D2E/DX2                !
 ! A9    A(1,2,18)             109.1802         estimate D2E/DX2                !
 ! A10   A(3,2,17)             109.5673         estimate D2E/DX2                !
 ! A11   A(3,2,18)             109.5737         estimate D2E/DX2                !
 ! A12   A(17,2,18)            107.3543         estimate D2E/DX2                !
 ! A13   A(2,3,4)              111.9773         estimate D2E/DX2                !
 ! A14   A(2,3,19)             109.2868         estimate D2E/DX2                !
 ! A15   A(2,3,20)             109.3122         estimate D2E/DX2                !
 ! A16   A(4,3,19)             109.3594         estimate D2E/DX2                !
 ! A17   A(4,3,20)             109.3835         estimate D2E/DX2                !
 ! A18   A(19,3,20)            107.4121         estimate D2E/DX2                !
 ! A19   A(3,4,5)              111.9794         estimate D2E/DX2                !
 ! A20   A(3,4,21)             109.358          estimate D2E/DX2                !
 ! A21   A(3,4,22)             109.3126         estimate D2E/DX2                !
 ! A22   A(5,4,21)             109.3394         estimate D2E/DX2                !
 ! A23   A(5,4,22)             109.3276         estimate D2E/DX2                !
 ! A24   A(21,4,22)            107.4145         estimate D2E/DX2                !
 ! A25   A(4,5,6)              111.9605         estimate D2E/DX2                !
 ! A26   A(4,5,23)             109.3281         estimate D2E/DX2                !
 ! A27   A(4,5,24)             109.3547         estimate D2E/DX2                !
 ! A28   A(6,5,23)             109.3177         estimate D2E/DX2                !
 ! A29   A(6,5,24)             109.3577         estimate D2E/DX2                !
 ! A30   A(23,5,24)            107.4136         estimate D2E/DX2                !
 ! A31   A(5,6,7)              111.9631         estimate D2E/DX2                !
 ! A32   A(5,6,25)             109.3404         estimate D2E/DX2                !
 ! A33   A(5,6,26)             109.2994         estimate D2E/DX2                !
 ! A34   A(7,6,25)             109.3781         estimate D2E/DX2                !
 ! A35   A(7,6,26)             109.3422         estimate D2E/DX2                !
 ! A36   A(25,6,26)            107.4085         estimate D2E/DX2                !
 ! A37   A(6,7,8)              112.0414         estimate D2E/DX2                !
 ! A38   A(6,7,27)             109.2237         estimate D2E/DX2                !
 ! A39   A(6,7,28)             109.2421         estimate D2E/DX2                !
 ! A40   A(8,7,27)             109.4073         estimate D2E/DX2                !
 ! A41   A(8,7,28)             109.4425         estimate D2E/DX2                !
 ! A42   A(27,7,28)            107.3697         estimate D2E/DX2                !
 ! A43   A(7,8,9)              111.2314         estimate D2E/DX2                !
 ! A44   A(7,8,29)             107.9075         estimate D2E/DX2                !
 ! A45   A(7,8,30)             107.906          estimate D2E/DX2                !
 ! A46   A(9,8,29)             110.8306         estimate D2E/DX2                !
 ! A47   A(9,8,30)             110.8179         estimate D2E/DX2                !
 ! A48   A(29,8,30)            108.0135         estimate D2E/DX2                !
 ! A49   A(8,9,10)             113.8157         estimate D2E/DX2                !
 ! A50   A(8,9,31)             108.4532         estimate D2E/DX2                !
 ! A51   A(8,9,32)             108.4414         estimate D2E/DX2                !
 ! A52   A(10,9,31)            109.4996         estimate D2E/DX2                !
 ! A53   A(10,9,32)            109.5177         estimate D2E/DX2                !
 ! A54   A(31,9,32)            106.8759         estimate D2E/DX2                !
 ! A55   A(9,10,11)            111.5685         estimate D2E/DX2                !
 ! A56   A(9,10,12)            107.7756         estimate D2E/DX2                !
 ! A57   A(9,10,13)            111.572          estimate D2E/DX2                !
 ! A58   A(11,10,12)           108.2862         estimate D2E/DX2                !
 ! A59   A(11,10,13)           109.242          estimate D2E/DX2                !
 ! A60   A(12,10,13)           108.2774         estimate D2E/DX2                !
 ! A61   A(10,11,33)           110.9762         estimate D2E/DX2                !
 ! A62   A(10,11,34)           112.0022         estimate D2E/DX2                !
 ! A63   A(10,11,35)           111.1058         estimate D2E/DX2                !
 ! A64   A(33,11,34)           106.5054         estimate D2E/DX2                !
 ! A65   A(33,11,35)           107.7606         estimate D2E/DX2                !
 ! A66   A(34,11,35)           108.2772         estimate D2E/DX2                !
 ! A67   A(10,12,36)           111.3832         estimate D2E/DX2                !
 ! A68   A(10,12,37)           111.2265         estimate D2E/DX2                !
 ! A69   A(10,12,38)           111.2241         estimate D2E/DX2                !
 ! A70   A(36,12,37)           107.4882         estimate D2E/DX2                !
 ! A71   A(36,12,38)           107.4883         estimate D2E/DX2                !
 ! A72   A(37,12,38)           107.8404         estimate D2E/DX2                !
 ! A73   A(10,13,39)           111.1025         estimate D2E/DX2                !
 ! A74   A(10,13,40)           112.0158         estimate D2E/DX2                !
 ! A75   A(10,13,41)           110.9762         estimate D2E/DX2                !
 ! A76   A(39,13,40)           108.2708         estimate D2E/DX2                !
 ! A77   A(39,13,41)           107.7544         estimate D2E/DX2                !
 ! A78   A(40,13,41)           106.5069         estimate D2E/DX2                !
 ! D1    D(14,1,2,3)           179.9783         estimate D2E/DX2                !
 ! D2    D(14,1,2,17)           58.5251         estimate D2E/DX2                !
 ! D3    D(14,1,2,18)          -58.5794         estimate D2E/DX2                !
 ! D4    D(15,1,2,3)           -60.175          estimate D2E/DX2                !
 ! D5    D(15,1,2,17)          178.3719         estimate D2E/DX2                !
 ! D6    D(15,1,2,18)           61.2673         estimate D2E/DX2                !
 ! D7    D(16,1,2,3)            60.1191         estimate D2E/DX2                !
 ! D8    D(16,1,2,17)          -61.3341         estimate D2E/DX2                !
 ! D9    D(16,1,2,18)         -178.4387         estimate D2E/DX2                !
 ! D10   D(1,2,3,4)            179.7989         estimate D2E/DX2                !
 ! D11   D(1,2,3,19)            58.4702         estimate D2E/DX2                !
 ! D12   D(1,2,3,20)           -58.8246         estimate D2E/DX2                !
 ! D13   D(17,2,3,4)           -58.9555         estimate D2E/DX2                !
 ! D14   D(17,2,3,19)          179.7158         estimate D2E/DX2                !
 ! D15   D(17,2,3,20)           62.4211         estimate D2E/DX2                !
 ! D16   D(18,2,3,4)            58.584          estimate D2E/DX2                !
 ! D17   D(18,2,3,19)          -62.7447         estimate D2E/DX2                !
 ! D18   D(18,2,3,20)          179.9606         estimate D2E/DX2                !
 ! D19   D(2,3,4,5)           -179.9292         estimate D2E/DX2                !
 ! D20   D(2,3,4,21)            58.7172         estimate D2E/DX2                !
 ! D21   D(2,3,4,22)           -58.6216         estimate D2E/DX2                !
 ! D22   D(19,3,4,5)           -58.6424         estimate D2E/DX2                !
 ! D23   D(19,3,4,21)         -179.996          estimate D2E/DX2                !
 ! D24   D(19,3,4,22)           62.6652         estimate D2E/DX2                !
 ! D25   D(20,3,4,5)            58.7354         estimate D2E/DX2                !
 ! D26   D(20,3,4,21)          -62.6182         estimate D2E/DX2                !
 ! D27   D(20,3,4,22)         -179.9571         estimate D2E/DX2                !
 ! D28   D(3,4,5,6)            179.6819         estimate D2E/DX2                !
 ! D29   D(3,4,5,23)            58.3886         estimate D2E/DX2                !
 ! D30   D(3,4,5,24)           -58.9561         estimate D2E/DX2                !
 ! D31   D(21,4,5,6)           -58.9538         estimate D2E/DX2                !
 ! D32   D(21,4,5,23)          179.753          estimate D2E/DX2                !
 ! D33   D(21,4,5,24)           62.4082         estimate D2E/DX2                !
 ! D34   D(22,4,5,6)            58.383          estimate D2E/DX2                !
 ! D35   D(22,4,5,23)          -62.9102         estimate D2E/DX2                !
 ! D36   D(22,4,5,24)          179.745          estimate D2E/DX2                !
 ! D37   D(4,5,6,7)           -179.8735         estimate D2E/DX2                !
 ! D38   D(4,5,6,25)            58.7467         estimate D2E/DX2                !
 ! D39   D(4,5,6,26)           -58.5672         estimate D2E/DX2                !
 ! D40   D(23,5,6,7)           -58.5743         estimate D2E/DX2                !
 ! D41   D(23,5,6,25)         -179.954          estimate D2E/DX2                !
 ! D42   D(23,5,6,26)           62.732          estimate D2E/DX2                !
 ! D43   D(24,5,6,7)            58.7662         estimate D2E/DX2                !
 ! D44   D(24,5,6,25)          -62.6135         estimate D2E/DX2                !
 ! D45   D(24,5,6,26)         -179.9274         estimate D2E/DX2                !
 ! D46   D(5,6,7,8)            179.7161         estimate D2E/DX2                !
 ! D47   D(5,6,7,27)            58.3283         estimate D2E/DX2                !
 ! D48   D(5,6,7,28)           -58.839          estimate D2E/DX2                !
 ! D49   D(25,6,7,8)           -58.9259         estimate D2E/DX2                !
 ! D50   D(25,6,7,27)          179.6863         estimate D2E/DX2                !
 ! D51   D(25,6,7,28)           62.519          estimate D2E/DX2                !
 ! D52   D(26,6,7,8)            58.4344         estimate D2E/DX2                !
 ! D53   D(26,6,7,27)          -62.9533         estimate D2E/DX2                !
 ! D54   D(26,6,7,28)          179.8793         estimate D2E/DX2                !
 ! D55   D(6,7,8,9)           -179.924          estimate D2E/DX2                !
 ! D56   D(6,7,8,29)            58.3092         estimate D2E/DX2                !
 ! D57   D(6,7,8,30)           -58.174          estimate D2E/DX2                !
 ! D58   D(27,7,8,9)           -58.6419         estimate D2E/DX2                !
 ! D59   D(27,7,8,29)          179.5913         estimate D2E/DX2                !
 ! D60   D(27,7,8,30)           63.1081         estimate D2E/DX2                !
 ! D61   D(28,7,8,9)            58.7464         estimate D2E/DX2                !
 ! D62   D(28,7,8,29)          -63.0204         estimate D2E/DX2                !
 ! D63   D(28,7,8,30)         -179.5036         estimate D2E/DX2                !
 ! D64   D(7,8,9,10)           179.8472         estimate D2E/DX2                !
 ! D65   D(7,8,9,31)            57.7112         estimate D2E/DX2                !
 ! D66   D(7,8,9,32)           -58.0023         estimate D2E/DX2                !
 ! D67   D(29,8,9,10)          -60.1028         estimate D2E/DX2                !
 ! D68   D(29,8,9,31)          177.7613         estimate D2E/DX2                !
 ! D69   D(29,8,9,32)           62.0478         estimate D2E/DX2                !
 ! D70   D(30,8,9,10)           59.8075         estimate D2E/DX2                !
 ! D71   D(30,8,9,31)          -62.3285         estimate D2E/DX2                !
 ! D72   D(30,8,9,32)         -178.042          estimate D2E/DX2                !
 ! D73   D(8,9,10,11)           61.2024         estimate D2E/DX2                !
 ! D74   D(8,9,10,12)          179.9552         estimate D2E/DX2                !
 ! D75   D(8,9,10,13)          -61.3008         estimate D2E/DX2                !
 ! D76   D(31,9,10,11)        -177.241          estimate D2E/DX2                !
 ! D77   D(31,9,10,12)         -58.4882         estimate D2E/DX2                !
 ! D78   D(31,9,10,13)          60.2559         estimate D2E/DX2                !
 ! D79   D(32,9,10,11)         -60.3523         estimate D2E/DX2                !
 ! D80   D(32,9,10,12)          58.4005         estimate D2E/DX2                !
 ! D81   D(32,9,10,13)         177.1445         estimate D2E/DX2                !
 ! D82   D(9,10,11,33)         174.4194         estimate D2E/DX2                !
 ! D83   D(9,10,11,34)         -66.6934         estimate D2E/DX2                !
 ! D84   D(9,10,11,35)          54.5409         estimate D2E/DX2                !
 ! D85   D(12,10,11,33)         55.9715         estimate D2E/DX2                !
 ! D86   D(12,10,11,34)        174.8587         estimate D2E/DX2                !
 ! D87   D(12,10,11,35)        -63.9071         estimate D2E/DX2                !
 ! D88   D(13,10,11,33)        -61.7509         estimate D2E/DX2                !
 ! D89   D(13,10,11,34)         57.1363         estimate D2E/DX2                !
 ! D90   D(13,10,11,35)        178.3705         estimate D2E/DX2                !
 ! D91   D(9,10,12,36)         179.993          estimate D2E/DX2                !
 ! D92   D(9,10,12,37)          60.1055         estimate D2E/DX2                !
 ! D93   D(9,10,12,38)         -60.1211         estimate D2E/DX2                !
 ! D94   D(11,10,12,36)        -59.1755         estimate D2E/DX2                !
 ! D95   D(11,10,12,37)       -179.0629         estimate D2E/DX2                !
 ! D96   D(11,10,12,38)         60.7104         estimate D2E/DX2                !
 ! D97   D(13,10,12,36)         59.1623         estimate D2E/DX2                !
 ! D98   D(13,10,12,37)        -60.7252         estimate D2E/DX2                !
 ! D99   D(13,10,12,38)        179.0482         estimate D2E/DX2                !
 ! D100  D(9,10,13,39)         -54.5046         estimate D2E/DX2                !
 ! D101  D(9,10,13,40)          66.7286         estimate D2E/DX2                !
 ! D102  D(9,10,13,41)        -174.3733         estimate D2E/DX2                !
 ! D103  D(11,10,13,39)       -178.3322         estimate D2E/DX2                !
 ! D104  D(11,10,13,40)        -57.099          estimate D2E/DX2                !
 ! D105  D(11,10,13,41)         61.7991         estimate D2E/DX2                !
 ! D106  D(12,10,13,39)         63.9399         estimate D2E/DX2                !
 ! D107  D(12,10,13,40)       -174.827          estimate D2E/DX2                !
 ! D108  D(12,10,13,41)        -55.9288         estimate D2E/DX2                !
 --------------------------------------------------------------------------------
 Trust Radius=3.00D-01 FncErr=1.00D-07 GrdErr=1.00D-06
 Number of steps in this run=    236 maximum allowed number of steps=    246.
 GradGradGradGradGradGradGradGradGradGradGradGradGradGradGradGradGradGrad

                          Input orientation:                          
 ---------------------------------------------------------------------
 Center     Atomic      Atomic             Coordinates (Angstroms)
 Number     Number       Type             X           Y           Z
 ---------------------------------------------------------------------
      1          6           0       -3.299794   -5.575936   -0.011197
      2          6           0       -1.986486   -4.782430   -0.027549
      3          6           0       -2.234558   -3.265550   -0.023111
      4          6           0       -0.920489   -2.467609   -0.034464
      5          6           0       -1.168549   -0.950361   -0.028263
      6          6           0        0.145855   -0.152868   -0.031704
      7          6           0       -0.102182    1.364759   -0.022354
      8          6           0        1.213375    2.165360   -0.018711
      9          6           0        0.943616    3.680969   -0.007451
     10          7           0        2.210171    4.532271    0.000356
     11          6           0        3.054626    4.288412   -1.238740
     12          6           0        1.787109    5.994904    0.009918
     13          6           0        3.050945    4.271364    1.238555
     14          1           0       -3.104030   -6.673030   -0.015012
     15          1           0       -3.899214   -5.342134    0.898234
     16          1           0       -3.923029   -5.339967   -0.903892
     17          1           0       -1.399364   -5.062605   -0.934749
     18          1           0       -1.376585   -5.064250    0.863937
     19          1           0       -2.825996   -2.991427    0.882668
     20          1           0       -2.843797   -2.988587   -0.916191
     21          1           0       -0.329093   -2.741701   -0.940306
     22          1           0       -0.311913   -2.746019    0.858570
     23          1           0       -1.763776   -0.677108    0.875280
     24          1           0       -1.773163   -0.670802   -0.923583
     25          1           0        0.741016   -0.425217   -0.935545
     26          1           0        0.750271   -0.434134    0.863277
     27          1           0       -0.702349    1.633480    0.879461
     28          1           0       -0.704809    1.644488   -0.919115
     29          1           0        1.794736    1.873132   -0.923069
     30          1           0        1.797424    1.860455    0.879700
     31          1           0        0.326427    3.923232    0.890136
     32          1           0        0.328077    3.936621   -0.902452
     33          1           0        3.923029    4.984778   -1.272741
     34          1           0        3.474127    3.259053   -1.260937
     35          1           0        2.458858    4.442822   -2.166778
     36          1           0        2.670406    6.673030    0.016078
     37          1           0        1.176698    6.232215    0.910704
     38          1           0        1.179608    6.244778   -0.889428
     39          1           0        2.452165    4.412350    2.166778
     40          1           0        3.471058    3.242064    1.247756
     41          1           0        3.918755    4.967760    1.285186
 ---------------------------------------------------------------------
                    Distance matrix (angstroms):
                    1          2          3          4          5
     1  C    0.000000
     2  C    1.534502   0.000000
     3  C    2.544161   1.537038   0.000000
     4  C    3.914503   2.548489   1.537406   0.000000
     5  C    5.092980   3.918389   2.548824   1.537405   0.000000
     6  C    6.425152   5.097032   3.918575   2.548553   1.537421
     7  C    7.641865   6.429507   5.097724   3.918778   2.548912
     8  C    8.960827   7.649247   6.432965   5.100787   3.921909
     9  C   10.183164   8.956284   7.639055   6.425000   5.090274
    10  N   11.512415  10.216475   8.975644   7.668153   6.440172
    11  C   11.797918  10.447965   9.301374   7.930677   6.837046
    12  C   12.639674  11.418947  10.096084   8.885223   7.548118
    13  C   11.784018  10.437908   9.291578   7.925063   6.831937
    14  H    1.114430   2.196231   3.516670   4.738544   6.041126
    15  H    1.114016   2.197469   2.816409   4.243303   5.253817
    16  H    1.114005   2.197504   2.816011   4.245185   5.255714
    17  H    2.174417   1.116343   2.181293   2.788160   4.217291
    18  H    2.174032   1.116310   2.181351   2.785263   4.214663
    19  H    2.775458   2.177375   1.115965   2.178640   2.782602
    20  H    2.778727   2.177737   1.116007   2.178985   2.783745
    21  H    4.209655   2.782921   2.178637   1.115986   2.178396
    22  H    4.206228   2.781433   2.178035   1.115969   2.178230
    23  H    5.209962   4.209319   2.780067   2.178224   1.115954
    24  H    5.217604   4.213534   2.785041   2.178555   1.115934
    25  H    6.611541   5.220060   4.213558   2.782788   2.178388
    26  H    6.603473   5.214507   4.208539   2.780719   2.177890
    27  H    7.714640   6.605723   5.211794   4.207348   2.778046
    28  H    7.726111   6.613839   5.220290   4.211706   2.782429
    29  H    9.070522   7.706887   6.591751   5.196547   4.189731
    30  H    9.059539   7.698636   6.583910   5.191809   4.185938
    31  H   10.207648   9.054295   7.685782   6.576666   5.179799
    32  H   10.219810   9.063361   7.694908   6.582285   5.185238
    33  H   12.856490  11.483520  10.370408   8.973910   7.918255
    34  H   11.202896   9.798214   8.757382   7.321990   6.386947
    35  H   11.755174  10.461485   9.275908   7.982531   6.842350
    36  H   13.626489  12.365925  11.083121   9.820813   8.535551
    37  H   12.661805  11.498194  10.134901   8.998804   7.613885
    38  H   12.671449  11.505056  10.141665   9.002614   7.617445
    39  H   11.730067  10.443212   9.258031   7.972082   6.832748
    40  H   11.188678   9.787936   8.747468   7.316429   6.382053
    41  H   12.843581  11.474378  10.361578   8.969084   7.913910
                    6          7          8          9         10
     6  C    0.000000
     7  C    1.537791   0.000000
     8  C    2.552244   1.540021   0.000000
     9  C    3.916033   2.541406   1.539470   0.000000
    10  N    5.119859   3.921814   2.568313   1.526086   0.000000
    11  C    5.444525   4.471328   3.063662   2.518218   1.519187
    12  C    6.363218   5.000870   3.872389   2.462941   1.522619
    13  C    5.443063   4.469950   3.064740   2.518319   1.519247
    14  H    7.285228   8.580046   9.836521  11.117050  12.401602
    15  H    6.644987   7.761917   9.129174  10.280547  11.646229
    16  H    6.650002   7.767196   9.137621  10.289078  11.657396
    17  H    5.225774   6.620132   7.740091   9.099424  10.293921
    18  H    5.219355   6.613756   7.730085   9.089637  10.281236
    19  H    4.210153   5.216760   6.612220   7.715125   9.096564
    20  H    4.214456   5.221783   6.620369   7.723554   9.107467
    21  H    2.784455   4.213922   5.225686   6.613675   7.761661
    22  H    2.779671   4.209336   5.217065   6.605492   7.750545
    23  H    2.178104   2.781342   4.212158   5.205960   6.610248
    24  H    2.178608   2.783505   4.216873   5.211343   6.617596
    25  H    1.115939   2.179200   2.788332   4.214637   5.254618
    26  H    1.115984   2.178769   2.783835   4.210656   5.247963
    27  H    2.177317   1.116101   2.181653   2.772729   4.202212
    28  H    2.177525   1.116059   2.182078   2.774111   4.204976
    29  H    2.760075   2.160562   1.114110   2.197962   2.845403
    30  H    2.758950   2.160537   1.114102   2.197793   2.842922
    31  H    4.182940   2.749932   2.168593   1.115919   2.170513
    32  H    4.185132   2.752121   2.168436   1.115918   2.170746
    33  H    6.496355   5.556107   4.106572   3.489667   2.181610
    34  H    4.922358   4.232307   2.801837   2.855298   2.193064
    35  H    5.570358   4.542241   3.369310   2.745737   2.183189
    36  H    7.277948   5.988862   4.737430   3.454676   2.189729
    37  H    6.536058   5.118424   4.171866   2.721432   2.187832
    38  H    6.537141   5.119511   4.171443   2.721524   2.187797
    39  H    5.567190   4.539251   3.370449   2.745525   2.183192
    40  H    4.921337   4.231489   2.803634   2.855897   2.193280
    41  H    6.495368   5.555107   4.107636   3.489727   2.181673
                   11         12         13         14         15
    11  C    0.000000
    12  C    2.465332   0.000000
    13  C    2.477356   2.465242   0.000000
    14  H   12.632488  13.579411  12.618831   0.000000
    15  H   12.069381  12.714236  11.867598   1.799339   0.000000
    16  H   11.895607  12.724780  12.066651   1.799423   1.802285
    17  H   10.362044  11.546190  10.566526   2.518982   3.112429
    18  H   10.560737  11.534435  10.339103   2.518887   2.538120
    19  H    9.595736  10.138865   9.349504   3.799649   2.584156
    20  H    9.372841  10.149191   9.596760   3.801969   3.153605
    21  H    7.807759   9.039331   8.084255   4.900183   4.784166
    22  H    8.075612   9.029387   7.790819   4.896987   4.428331
    23  H    7.234809   7.607456   6.913818   6.208058   5.130603
    24  H    6.928252   7.614368   7.236841   6.214777   5.446141
    25  H    5.259564   6.573140   5.667482   7.393709   7.005038
    26  H    5.659591   6.567784   5.251252   7.385855   6.760725
    27  H    5.064613   5.096619   4.601586   8.692886   7.673297
    28  H    4.607152   5.098909   5.065738   8.703722   7.894293
    29  H    2.742362   4.226053   3.464419   9.892389   9.370073
    30  H    3.458803   4.224961   2.740908   9.881555   9.183099
    31  H    3.479733   2.683319   2.768680  11.174439  10.183473
    32  H    2.769642   2.682857   3.479939  11.186224  10.354118
    33  H    1.113645   2.688442   2.752471  13.669891  13.135666
    34  H    1.111780   3.456296   2.729710  11.977928  11.532935
    35  H    1.113569   2.756485   3.460673  12.614991  12.065021
    36  H    2.721874   1.113601   2.721628  14.541747  13.722328
    37  H    3.453273   1.113703   2.732256  13.628167  12.638457
    38  H    2.732230   1.113696   3.453198  13.637592  12.776803
    39  H    3.460617   2.756596   1.113558  12.590360  11.708936
    40  H    2.729638   3.456307   1.111772  11.963923  11.319520
    41  H    2.752896   2.687982   1.113659  13.657160  12.944662
                   16         17         18         19         20
    16  H    0.000000
    17  H    2.539048   0.000000
    18  H    3.112172   1.798831   0.000000
    19  H    3.148161   3.102912   2.529375   0.000000
    20  H    2.587254   2.527505   3.103215   1.798949   0.000000
    21  H    4.434939   2.555799   3.121981   3.101632   2.526909
    22  H    4.782781   3.124918   2.551029   2.526147   3.101460
    23  H    5.437838   4.758317   4.404209   2.546456   3.117491
    24  H    5.140371   4.407696   4.759715   3.123508   2.553123
    25  H    6.775624   5.107504   5.407679   4.755513   4.407054
    26  H    7.002129   5.410783   5.095242   4.396568   4.754899
    27  H    7.885562   6.972427   6.731599   5.089170   5.401265
    28  H    7.690239   6.742978   6.974075   5.407177   5.103005
    29  H    9.204456   7.635893   7.834407   6.948078   6.719550
    30  H    9.367543   7.838395   7.617488   6.701998   6.948335
    31  H   10.348105   9.330264   9.147446   7.599364   7.815778
    32  H   10.204263   9.163578   9.329613   7.818739   7.617052
    33  H   12.972935  11.375061  11.560029  10.668410  10.463824
    34  H   11.348504   9.649213   9.865185   9.129901   8.892020
    35  H   11.748460  10.332324  10.690195   9.617529   9.214551
    36  H   13.734330  12.457617  12.444306  11.151822  11.163440
    37  H   12.775577  11.730931  11.581518  10.054746  10.223752
    38  H   12.658729  11.597847  11.726147  10.222166  10.071918
    39  H   12.049058  10.687774  10.303527   9.182801   9.608630
    40  H   11.530541   9.871771   9.625062   8.868066   9.131324
    41  H   13.135253  11.568004  11.351621  10.440419  10.671534
                   21         22         23         24         25
    21  H    0.000000
    22  H    1.798963   0.000000
    23  H    3.101163   2.527564   0.000000
    24  H    2.524726   3.101265   1.798899   0.000000
    25  H    2.551716   3.116670   3.101051   2.526173   0.000000
    26  H    3.121346   2.544223   2.525790   3.101064   1.798868
    27  H    4.753218   4.396918   2.542727   3.115658   3.100933
    28  H    4.402302   4.753008   3.119467   2.549896   2.524749
    29  H    5.080121   5.380406   4.732947   4.381952   2.528416
    30  H    5.386496   5.066493   4.372801   4.733728   3.104095
    31  H    6.942734   6.699805   5.052949   5.366843   4.734343
    32  H    6.710685   6.940350   5.368675   5.063991   4.381466
    33  H    8.825505   9.068762   8.307268   8.034557   6.285456
    34  H    7.111704   7.408596   6.891474   6.564421   4.598872
    35  H    7.803478   8.277037   7.300578   6.753124   5.307044
    36  H    9.927176   9.915770   8.626977   8.634821   7.417091
    37  H    9.285732   9.100954   7.509087   7.727738   6.922417
    38  H    9.112386   9.279793   7.725944   7.519659   6.684559
    39  H    8.280689   7.784201   6.733848   7.296723   5.996207
    40  H    7.418504   7.093622   6.549972   6.893989   5.066447
    41  H    9.079252   8.808118   8.020207   8.310835   6.641827
                   26         27         28         29         30
    26  H    0.000000
    27  H    2.526934   0.000000
    28  H    3.100782   1.798611   0.000000
    29  H    3.099260   3.089010   2.509984   0.000000
    30  H    2.522288   2.510056   3.089263   1.802816   0.000000
    31  H    4.378014   2.510271   3.086991   3.105890   2.533573
    32  H    4.732816   3.088924   2.514161   2.531699   3.105722
    33  H    6.632765   6.103875   5.718345   3.786059   4.348861
    34  H    5.056808   4.966562   4.493013   2.203471   3.057734
    35  H    5.990426   5.212025   4.404103   2.931071   4.048104
    36  H    7.410563   6.125191   6.128042   4.968684   4.966771
    37  H    6.680142   4.967913   5.285409   4.769308   4.415716
    38  H    6.918394   5.285338   4.971376   4.414839   4.767997
    39  H    5.299431   4.396619   5.210593   4.053023   2.932136
    40  H    4.589656   4.487818   4.968445   3.065373   2.201218
    41  H    6.276763   5.712849   6.105770   4.354833   3.784152
                   31         32         33         34         35
    31  H    0.000000
    32  H    1.792639   0.000000
    33  H    4.329026   3.762901   0.000000
    34  H    3.869918   3.238092   1.783194   0.000000
    35  H    3.763238   2.528831   1.799115   1.803504   0.000000
    36  H    3.717473   3.717275   2.465829   3.732556   3.127849
    37  H    2.460648   3.045890   3.723690   4.339804   3.783749
    38  H    3.047022   2.460257   3.043171   3.783833   2.552479
    39  H    2.527412   3.762744   3.784363   3.758155   4.333668
    40  H    3.237373   3.870934   3.097456   2.508752   3.758379
    41  H    3.761904   4.329200   2.557987   3.098405   3.784563
                   36         37         38         39         40
    36  H    0.000000
    37  H    1.796062   0.000000
    38  H    1.796057   1.800178   0.000000
    39  H    3.127909   2.552733   3.783859   0.000000
    40  H    3.732238   3.784005   4.339884   1.803417   0.000000
    41  H    2.465148   3.042690   3.723258   1.799047   1.783216
                   41
    41  H    0.000000
 Stoichiometry    C12H28N(1+)
 Framework group  C1[X(C12H28N)]
 Deg. of freedom   117
 Full point group                 C1      NOp   1
 Largest Abelian subgroup         C1      NOp   1
 Largest concise Abelian subgroup C1      NOp   1
                         Standard orientation:                         
 ---------------------------------------------------------------------
 Center     Atomic      Atomic             Coordinates (Angstroms)
 Number     Number       Type             X           Y           Z
 ---------------------------------------------------------------------
      1          6           0       -7.213016    0.235849    0.018300
      2          6           0       -5.904921   -0.566261    0.004012
      3          6           0       -4.671526    0.350910   -0.000138
      4          6           0       -3.359130   -0.449807   -0.009445
      5          6           0       -2.125399    0.467534   -0.011834
      6          6           0       -0.813229   -0.333637   -0.013225
      7          6           0        0.420857    0.583877   -0.012467
      8          6           0        1.736333   -0.216845   -0.006785
      9          6           0        2.958652    0.719048   -0.004205
     10          7           0        4.296661   -0.014833    0.005169
     11          6           0        4.465159   -0.884721   -1.228863
     12          6           0        5.401497    1.032882    0.005614
     13          6           0        4.453978   -0.873687    1.248443
     14          1           0       -8.097571   -0.442022    0.020771
     15          1           0       -7.278634    0.881395    0.923837
     16          1           0       -7.291762    0.892199   -0.878367
     17          1           0       -5.886138   -1.222171   -0.899122
     18          1           0       -5.873031   -1.231836    0.899636
     19          1           0       -4.697671    1.007865    0.901585
     20          1           0       -4.707430    1.013657   -0.897328
     21          1           0       -3.332978   -1.106710   -0.911231
     22          1           0       -3.324816   -1.112629    0.887703
     23          1           0       -2.154062    1.127440    0.887641
     24          1           0       -2.156877    1.127351   -0.911256
     25          1           0       -0.783794   -0.993071   -0.913002
     26          1           0       -0.783358   -0.994064    0.885865
     27          1           0        0.385895    1.246079    0.885279
     28          1           0        0.390439    1.241998   -0.913322
     29          1           0        1.741770   -0.873157   -0.907044
     30          1           0        1.735858   -0.870019    0.895759
     31          1           0        2.892360    1.384188    0.889366
     32          1           0        2.900920    1.377589   -0.903240
     33          1           0        5.482549   -1.336388   -1.262343
     34          1           0        3.743508   -1.730322   -1.244091
     35          1           0        4.326508   -0.290456   -2.160347
     36          1           0        6.409619    0.559859    0.012452
     37          1           0        5.333927    1.689747    0.902439
     38          1           0        5.342315    1.681601   -0.897701
     39          1           0        4.306255   -0.271228    2.173231
     40          1           0        3.732732   -1.719607    1.264615
     41          1           0        5.471306   -1.324306    1.295591
 ---------------------------------------------------------------------
 Rotational constants (GHZ):      3.1225301      0.1500038      0.1489567
 Standard basis: 6-311++G(d,p) (5D, 7F)
 There are   495 symmetry adapted cartesian basis functions of A   symmetry.
 There are   482 symmetry adapted basis functions of A   symmetry.
   482 basis functions,   720 primitive gaussians,   495 cartesian basis functions
    53 alpha electrons       53 beta electrons
       nuclear repulsion energy       808.8899781867 Hartrees.
 NAtoms=   41 NActive=   41 NUniq=   41 SFac= 1.00D+00 NAtFMM=   60 NAOKFM=F Big=F
 Integral buffers will be    131072 words long.
 Raffenetti 2 integral format.
 Two-electron integral symmetry is turned on.
 One-electron integrals computed using PRISM.
 NBasis=   482 RedAO= T EigKep=  1.40D-06  NBF=   482
 NBsUse=   482 1.00D-06 EigRej= -1.00D+00 NBFU=   482
 ExpMin= 3.60D-02 ExpMax= 6.29D+03 ExpMxC= 9.49D+02 IAcc=3 IRadAn=         5 AccDes= 0.00D+00
 Harris functional with IExCor=  402 and IRadAn=       5 diagonalized for initial guess.
 HarFok:  IExCor=  402 AccDes= 0.00D+00 IRadAn=         5 IDoV= 1 UseB2=F ITyADJ=14
 ICtDFT=  3500011 ScaDFX=  1.000000  1.000000  1.000000  1.000000
 FoFCou: FMM=F IPFlag=           0 FMFlag=      100000 FMFlg1=           0
         NFxFlg=           0 DoJE=T BraDBF=F KetDBF=T FulRan=T
         wScrn=  0.000000 ICntrl=     500 IOpCl=  0 I1Cent=   200000004 NGrid=           0
         NMat0=    1 NMatS0=      1 NMatT0=    0 NMatD0=    1 NMtDS0=    0 NMtDT0=    0
 Petite list used in FoFCou.
 Keep R1 ints in memory in canonical form, NReq=6836666403.
 Requested convergence on RMS density matrix=1.00D-08 within 128 cycles.
 Requested convergence on MAX density matrix=1.00D-06.
 Requested convergence on             energy=1.00D-06.
 No special actions if energy rises.
 SCF Done:  E(RB3LYP) =  -528.810652929     A.U. after   12 cycles
            NFock= 12  Conv=0.41D-08     -V/T= 2.0069

 **********************************************************************

            Population analysis using the SCF density.

 **********************************************************************

 Orbital symmetries:
       Occupied  (A) (A) (A) (A) (A) (A) (A) (A) (A) (A) (A) (A)
                 (A) (A) (A) (A) (A) (A) (A) (A) (A) (A) (A) (A)
                 (A) (A) (A) (A) (A) (A) (A) (A) (A) (A) (A) (A)
                 (A) (A) (A) (A) (A) (A) (A) (A) (A) (A) (A) (A)
                 (A) (A) (A) (A) (A)
       Virtual   (A) (A) (A) (A) (A) (A) (A) (A) (A) (A) (A) (A)
                 (A) (A) (A) (A) (A) (A) (A) (A) (A) (A) (A) (A)
                 (A) (A) (A) (A) (A) (A) (A) (A) (A) (A) (A) (A)
                 (A) (A) (A) (A) (A) (A) (A) (A) (A) (A) (A) (A)
                 (A) (A) (A) (A) (A) (A) (A) (A) (A) (A) (A) (A)
                 (A) (A) (A) (A) (A) (A) (A) (A) (A) (A) (A) (A)
                 (A) (A) (A) (A) (A) (A) (A) (A) (A) (A) (A) (A)
                 (A) (A) (A) (A) (A) (A) (A) (A) (A) (A) (A) (A)
                 (A) (A) (A) (A) (A) (A) (A) (A) (A) (A) (A) (A)
                 (A) (A) (A) (A) (A) (A) (A) (A) (A) (A) (A) (A)
                 (A) (A) (A) (A) (A) (A) (A) (A) (A) (A) (A) (A)
                 (A) (A) (A) (A) (A) (A) (A) (A) (A) (A) (A) (A)
                 (A) (A) (A) (A) (A) (A) (A) (A) (A) (A) (A) (A)
                 (A) (A) (A) (A) (A) (A) (A) (A) (A) (A) (A) (A)
                 (A) (A) (A) (A) (A) (A) (A) (A) (A) (A) (A) (A)
                 (A) (A) (A) (A) (A) (A) (A) (A) (A) (A) (A) (A)
                 (A) (A) (A) (A) (A) (A) (A) (A) (A) (A) (A) (A)
                 (A) (A) (A) (A) (A) (A) (A) (A) (A) (A) (A) (A)
                 (A) (A) (A) (A) (A) (A) (A) (A) (A) (A) (A) (A)
                 (A) (A) (A) (A) (A) (A) (A) (A) (A) (A) (A) (A)
                 (A) (A) (A) (A) (A) (A) (A) (A) (A) (A) (A) (A)
                 (A) (A) (A) (A) (A) (A) (A) (A) (A) (A) (A) (A)
                 (A) (A) (A) (A) (A) (A) (A) (A) (A) (A) (A) (A)
                 (A) (A) (A) (A) (A) (A) (A) (A) (A) (A) (A) (A)
                 (A) (A) (A) (A) (A) (A) (A) (A) (A) (A) (A) (A)
                 (A) (A) (A) (A) (A) (A) (A) (A) (A) (A) (A) (A)
                 (A) (A) (A) (A) (A) (A) (A) (A) (A) (A) (A) (A)
                 (A) (A) (A) (A) (A) (A) (A) (A) (A) (A) (A) (A)
                 (A) (A) (A) (A) (A) (A) (A) (A) (A) (A) (A) (A)
                 (A) (A) (A) (A) (A) (A) (A) (A) (A) (A) (A) (A)
                 (A) (A) (A) (A) (A) (A) (A) (A) (A) (A) (A) (A)
                 (A) (A) (A) (A) (A) (A) (A) (A) (A) (A) (A) (A)
                 (A) (A) (A) (A) (A) (A) (A) (A) (A) (A) (A) (A)
                 (A) (A) (A) (A) (A) (A) (A) (A) (A) (A) (A) (A)
                 (A) (A) (A) (A) (A) (A) (A) (A) (A) (A) (A) (A)
                 (A) (A) (A) (A) (A) (A) (A) (A) (A)
 The electronic state is 1-A.
 Alpha  occ. eigenvalues --  -14.61701 -10.39137 -10.39135 -10.39134 -10.38885
 Alpha  occ. eigenvalues --  -10.32399 -10.29572 -10.27277 -10.25518 -10.24258
 Alpha  occ. eigenvalues --  -10.23291 -10.22776 -10.21606  -1.17589  -0.94993
 Alpha  occ. eigenvalues --   -0.90551  -0.90521  -0.89654  -0.86547  -0.83435
 Alpha  occ. eigenvalues --   -0.79975  -0.76802  -0.73233  -0.70018  -0.68681
 Alpha  occ. eigenvalues --   -0.67660  -0.67131  -0.65758  -0.63568  -0.62596
 Alpha  occ. eigenvalues --   -0.59771  -0.58661  -0.57022  -0.56653  -0.56362
 Alpha  occ. eigenvalues --   -0.56143  -0.56085  -0.54360  -0.53983  -0.51811
 Alpha  occ. eigenvalues --   -0.51319  -0.49571  -0.48449  -0.47734  -0.45613
 Alpha  occ. eigenvalues --   -0.45051  -0.44598  -0.42919  -0.41904  -0.40528
 Alpha  occ. eigenvalues --   -0.39454  -0.38659  -0.37816
 Alpha virt. eigenvalues --   -0.14741  -0.12189  -0.11634  -0.11433  -0.11162
 Alpha virt. eigenvalues --   -0.10332  -0.10179  -0.09253  -0.08367  -0.08357
 Alpha virt. eigenvalues --   -0.06843  -0.06457  -0.05820  -0.05793  -0.05013
 Alpha virt. eigenvalues --   -0.04487  -0.04303  -0.04289  -0.04043  -0.03777
 Alpha virt. eigenvalues --   -0.03065  -0.02777  -0.02563  -0.02191  -0.01787
 Alpha virt. eigenvalues --   -0.01384  -0.01163  -0.00856  -0.00612  -0.00511
 Alpha virt. eigenvalues --   -0.00173   0.00139   0.00272   0.00534   0.00739
 Alpha virt. eigenvalues --    0.01369   0.01769   0.02040   0.02083   0.02486
 Alpha virt. eigenvalues --    0.02871   0.02986   0.03312   0.03456   0.04121
 Alpha virt. eigenvalues --    0.04135   0.04426   0.04500   0.04856   0.05260
 Alpha virt. eigenvalues --    0.05380   0.05572   0.05688   0.06029   0.06129
 Alpha virt. eigenvalues --    0.06200   0.06789   0.06848   0.07079   0.07093
 Alpha virt. eigenvalues --    0.07646   0.08145   0.08197   0.08249   0.08522
 Alpha virt. eigenvalues --    0.08860   0.08926   0.09405   0.09916   0.10055
 Alpha virt. eigenvalues --    0.10195   0.10888   0.11003   0.11153   0.11423
 Alpha virt. eigenvalues --    0.11539   0.11854   0.12476   0.12575   0.13054
 Alpha virt. eigenvalues --    0.13329   0.13396   0.13799   0.13853   0.14427
 Alpha virt. eigenvalues --    0.14598   0.15169   0.15670   0.16092   0.16154
 Alpha virt. eigenvalues --    0.16301   0.17034   0.17091   0.18195   0.18512
 Alpha virt. eigenvalues --    0.18777   0.19282   0.19727   0.19921   0.20437
 Alpha virt. eigenvalues --    0.20581   0.21000   0.21680   0.23082   0.23401
 Alpha virt. eigenvalues --    0.23679   0.23999   0.24994   0.25576   0.25684
 Alpha virt. eigenvalues --    0.26055   0.27023   0.27822   0.27866   0.28013
 Alpha virt. eigenvalues --    0.29641   0.30005   0.30259   0.31245   0.31349
 Alpha virt. eigenvalues --    0.32595   0.33075   0.34370   0.35586   0.36361
 Alpha virt. eigenvalues --    0.36941   0.38498   0.39719   0.40297   0.41380
 Alpha virt. eigenvalues --    0.42208   0.42692   0.43052   0.43639   0.44138
 Alpha virt. eigenvalues --    0.44163   0.45810   0.46223   0.46275   0.47338
 Alpha virt. eigenvalues --    0.48155   0.48778   0.49029   0.49570   0.50394
 Alpha virt. eigenvalues --    0.51007   0.51253   0.52760   0.52794   0.53299
 Alpha virt. eigenvalues --    0.54226   0.54367   0.56342   0.56472   0.57361
 Alpha virt. eigenvalues --    0.57918   0.58635   0.58749   0.59459   0.59766
 Alpha virt. eigenvalues --    0.60352   0.60693   0.61466   0.62000   0.62139
 Alpha virt. eigenvalues --    0.62183   0.62746   0.63238   0.63382   0.63527
 Alpha virt. eigenvalues --    0.64685   0.65446   0.65584   0.66092   0.66603
 Alpha virt. eigenvalues --    0.67262   0.67408   0.68476   0.69464   0.69811
 Alpha virt. eigenvalues --    0.70614   0.70786   0.70831   0.71757   0.75343
 Alpha virt. eigenvalues --    0.75847   0.78339   0.78583   0.81049   0.83734
 Alpha virt. eigenvalues --    0.84811   0.87126   0.87666   0.89224   0.90543
 Alpha virt. eigenvalues --    0.91738   0.92422   0.93772   0.94886   0.96365
 Alpha virt. eigenvalues --    0.96495   0.96555   0.98700   1.01619   1.01815
 Alpha virt. eigenvalues --    1.07665   1.08011   1.12474   1.14241   1.14930
 Alpha virt. eigenvalues --    1.16955   1.17873   1.18189   1.19772   1.20774
 Alpha virt. eigenvalues --    1.23115   1.24696   1.27018   1.28215   1.29530
 Alpha virt. eigenvalues --    1.29888   1.31918   1.32475   1.32804   1.34822
 Alpha virt. eigenvalues --    1.35917   1.38502   1.39504   1.39690   1.39915
 Alpha virt. eigenvalues --    1.41371   1.41962   1.42949   1.42967   1.44060
 Alpha virt. eigenvalues --    1.45027   1.46435   1.46470   1.48312   1.48658
 Alpha virt. eigenvalues --    1.49804   1.50429   1.50856   1.51204   1.51368
 Alpha virt. eigenvalues --    1.52084   1.52239   1.53539   1.53981   1.54429
 Alpha virt. eigenvalues --    1.55080   1.55137   1.55679   1.55893   1.56866
 Alpha virt. eigenvalues --    1.58127   1.59054   1.59145   1.60756   1.62539
 Alpha virt. eigenvalues --    1.63232   1.63610   1.64155   1.64444   1.65152
 Alpha virt. eigenvalues --    1.65237   1.65787   1.66655   1.67580   1.69005
 Alpha virt. eigenvalues --    1.70454   1.71673   1.73968   1.76132   1.76535
 Alpha virt. eigenvalues --    1.77175   1.78816   1.79564   1.80829   1.81826
 Alpha virt. eigenvalues --    1.82407   1.85314   1.85448   1.86589   1.88246
 Alpha virt. eigenvalues --    1.90123   1.93808   1.94909   1.95496   1.97436
 Alpha virt. eigenvalues --    1.98104   1.98799   2.00699   2.00894   2.02611
 Alpha virt. eigenvalues --    2.04447   2.05177   2.06507   2.09401   2.10420
 Alpha virt. eigenvalues --    2.11446   2.12421   2.13310   2.14627   2.15242
 Alpha virt. eigenvalues --    2.17410   2.18596   2.19526   2.21505   2.22655
 Alpha virt. eigenvalues --    2.23796   2.24814   2.24862   2.25860   2.26212
 Alpha virt. eigenvalues --    2.26781   2.27216   2.27901   2.29110   2.30139
 Alpha virt. eigenvalues --    2.30258   2.31547   2.32965   2.33236   2.35940
 Alpha virt. eigenvalues --    2.36924   2.37660   2.38860   2.39282   2.40472
 Alpha virt. eigenvalues --    2.41006   2.42471   2.42495   2.44119   2.44430
 Alpha virt. eigenvalues --    2.45738   2.46999   2.47461   2.48435   2.49358
 Alpha virt. eigenvalues --    2.50302   2.51544   2.52203   2.53302   2.53708
 Alpha virt. eigenvalues --    2.55842   2.57095   2.57618   2.59399   2.60634
 Alpha virt. eigenvalues --    2.62462   2.62691   2.62831   2.64052   2.65161
 Alpha virt. eigenvalues --    2.65530   2.66721   2.68606   2.68851   2.70235
 Alpha virt. eigenvalues --    2.70429   2.73100   2.75199   2.76924   2.77421
 Alpha virt. eigenvalues --    2.78612   2.80817   2.82963   2.85290   2.86623
 Alpha virt. eigenvalues --    2.87340   2.88416   2.90107   2.91485   2.93844
 Alpha virt. eigenvalues --    2.95578   2.99476   3.00707   3.01341   3.08874
 Alpha virt. eigenvalues --    3.09203   3.19164   3.27776   3.34386   3.35938
 Alpha virt. eigenvalues --    3.36021   3.39451   3.42683   3.48682   3.53084
 Alpha virt. eigenvalues --    3.53977   3.54407   3.56396   3.58137   3.59460
 Alpha virt. eigenvalues --    3.59614   3.62875   3.65744   3.67911   3.69424
 Alpha virt. eigenvalues --    3.71304   3.71614   3.72556   3.75504   3.80619
 Alpha virt. eigenvalues --    3.89382   3.94691   3.98133   4.02815   4.09029
 Alpha virt. eigenvalues --    4.16103   4.22678   4.26862   4.48502   4.49710
 Alpha virt. eigenvalues --    4.52948  23.67630  23.71007  23.71328  23.71601
 Alpha virt. eigenvalues --   23.73543  23.74474  23.75999  23.77650  23.78770
 Alpha virt. eigenvalues --   23.79564  23.80840  23.87309  35.24478
          Condensed to atoms (all electrons):
               1          2          3          4          5          6
     1  C    5.485469   0.107050   0.114533  -0.052685  -0.069050  -0.012819
     2  C    0.107050   5.894796   0.015540   0.109542  -0.163470  -0.240630
     3  C    0.114533   0.015540   6.551217  -0.093843   0.169061  -0.354154
     4  C   -0.052685   0.109542  -0.093843   7.205721  -0.108859   0.054302
     5  C   -0.069050  -0.163470   0.169061  -0.108859   7.455565  -0.046257
     6  C   -0.012819  -0.240630  -0.354154   0.054302  -0.046257   8.919603
     7  C   -0.008382  -0.066986  -0.448792  -0.692196  -0.696550  -0.858626
     8  C   -0.001374  -0.026939  -0.100659  -0.695531  -0.545766  -0.926107
     9  C   -0.000139  -0.002951  -0.036501  -0.097962  -0.577093  -0.926108
    10  N   -0.000001  -0.000033  -0.000451  -0.007099  -0.013740  -0.124654
    11  C   -0.000001  -0.000070  -0.000711  -0.007982  -0.019497  -0.165336
    12  C    0.000000  -0.000001  -0.000107   0.000581  -0.005356  -0.001175
    13  C   -0.000001  -0.000071  -0.000700  -0.007966  -0.019418  -0.164571
    14  H    0.361781  -0.053230   0.043357   0.008426   0.002990  -0.001305
    15  H    0.403539  -0.016965  -0.031875  -0.008235  -0.001088  -0.001074
    16  H    0.404496  -0.017496  -0.030710  -0.009228  -0.001415  -0.001264
    17  H   -0.052053   0.411389  -0.054388  -0.001711   0.001887   0.006745
    18  H   -0.052104   0.410887  -0.052311  -0.003388   0.002360   0.005865
    19  H    0.014885  -0.063661   0.455656  -0.070806  -0.016935  -0.000311
    20  H    0.013594  -0.064959   0.452286  -0.069723  -0.011457  -0.001498
    21  H   -0.003010   0.016105  -0.083160   0.469419  -0.070238  -0.012901
    22  H   -0.003857   0.016180  -0.091716   0.472854  -0.066885  -0.013711
    23  H   -0.002544  -0.006244   0.021364  -0.096390   0.481695  -0.066866
    24  H   -0.002809  -0.006289   0.014130  -0.096968   0.476156  -0.065145
    25  H    0.000773  -0.003267   0.004633   0.043490  -0.083251   0.456240
    26  H    0.000779  -0.003819   0.003237   0.038073  -0.092752   0.455877
    27  H    0.000184   0.001148   0.000373   0.017900   0.044408  -0.056776
    28  H    0.000203   0.001081   0.001083   0.016804   0.045727  -0.058399
    29  H   -0.000034   0.000638   0.002444   0.006867   0.026008   0.120645
    30  H   -0.000031   0.000668   0.002789   0.006313   0.029318   0.117727
    31  H   -0.000004  -0.000051  -0.000055  -0.000900  -0.001931  -0.013706
    32  H   -0.000004  -0.000049  -0.000014  -0.001013  -0.001017  -0.014431
    33  H    0.000000  -0.000002  -0.000015  -0.000174  -0.000480  -0.002341
    34  H    0.000000  -0.000003  -0.000003  -0.000038   0.001271  -0.002292
    35  H    0.000000   0.000005   0.000048   0.000298   0.001051   0.000198
    36  H    0.000000   0.000000  -0.000001   0.000016  -0.000106   0.001616
    37  H    0.000000   0.000001   0.000000   0.000055   0.000077   0.000784
    38  H    0.000000   0.000001   0.000000   0.000057   0.000079   0.000800
    39  H    0.000000   0.000005   0.000041   0.000295   0.000909   0.000292
    40  H    0.000000  -0.000003  -0.000009   0.000006   0.001330  -0.001694
    41  H    0.000000  -0.000002  -0.000013  -0.000176  -0.000469  -0.002434
               7          8          9         10         11         12
     1  C   -0.008382  -0.001374  -0.000139  -0.000001  -0.000001   0.000000
     2  C   -0.066986  -0.026939  -0.002951  -0.000033  -0.000070  -0.000001
     3  C   -0.448792  -0.100659  -0.036501  -0.000451  -0.000711  -0.000107
     4  C   -0.692196  -0.695531  -0.097962  -0.007099  -0.007982   0.000581
     5  C   -0.696550  -0.545766  -0.577093  -0.013740  -0.019497  -0.005356
     6  C   -0.858626  -0.926107  -0.926108  -0.124654  -0.165336  -0.001175
     7  C    8.112026   0.153962   0.255991   0.010147   0.005140   0.014560
     8  C    0.153962   8.349584  -0.304387  -0.086872  -0.184908  -0.105612
     9  C    0.255991  -0.304387   8.059319   0.042441  -0.029617  -0.171328
    10  N    0.010147  -0.086872   0.042441   6.620835   0.306110   0.279064
    11  C    0.005140  -0.184908  -0.029617   0.306110   5.597440  -0.141076
    12  C    0.014560  -0.105612  -0.171328   0.279064  -0.141076   5.411031
    13  C    0.007184  -0.186967  -0.029092   0.306109  -0.120109  -0.141863
    14  H   -0.000341  -0.000091  -0.000008   0.000000   0.000000   0.000000
    15  H    0.000055  -0.000016  -0.000001   0.000000   0.000000   0.000000
    16  H    0.000036  -0.000024  -0.000001   0.000000   0.000000   0.000000
    17  H    0.000710   0.000407   0.000023   0.000001   0.000004   0.000000
    18  H    0.000749   0.000334   0.000026   0.000001  -0.000002   0.000000
    19  H   -0.000272   0.000286   0.000054  -0.000003   0.000013  -0.000002
    20  H    0.000697  -0.000093   0.000088  -0.000003  -0.000005  -0.000002
    21  H    0.001596  -0.002477   0.000368  -0.000058  -0.000228  -0.000008
    22  H    0.005113  -0.003622   0.000559  -0.000063   0.000086  -0.000006
    23  H   -0.017939   0.002979  -0.002672   0.000216  -0.000383   0.000046
    24  H   -0.008261   0.004182  -0.001154   0.000222   0.000471   0.000069
    25  H   -0.075205  -0.030615  -0.002583   0.001526   0.002290   0.000227
    26  H   -0.070110  -0.022634   0.000924   0.001574   0.000480   0.000302
    27  H    0.438933  -0.084315  -0.026843  -0.006121  -0.003654  -0.003203
    28  H    0.436651  -0.081985  -0.026015  -0.005892   0.000588  -0.003127
    29  H   -0.111667   0.471095  -0.121106  -0.016583  -0.036153  -0.000622
    30  H   -0.110813   0.470697  -0.122345  -0.015538   0.001844  -0.000836
    31  H    0.017386  -0.072595   0.353259   0.006380   0.016500   0.018240
    32  H    0.019994  -0.072708   0.351850   0.006272  -0.015528   0.017399
    33  H    0.000222   0.025883   0.014658  -0.026583   0.385338  -0.011968
    34  H    0.013972   0.041219  -0.069857  -0.021540   0.385751   0.011475
    35  H   -0.005227  -0.027549   0.018927  -0.002369   0.375213  -0.020922
    36  H   -0.001660   0.021387   0.025632  -0.013675  -0.021352   0.362485
    37  H   -0.003190  -0.012925   0.001089  -0.011366   0.016872   0.386177
    38  H   -0.002962  -0.013030   0.000882  -0.011330  -0.015394   0.386173
    39  H   -0.005896  -0.026695   0.018912  -0.002435   0.018805  -0.020814
    40  H    0.015005   0.040535  -0.070858  -0.021603  -0.015460   0.011578
    41  H    0.000199   0.025191   0.015147  -0.026411  -0.022664  -0.012010
              13         14         15         16         17         18
     1  C   -0.000001   0.361781   0.403539   0.404496  -0.052053  -0.052104
     2  C   -0.000071  -0.053230  -0.016965  -0.017496   0.411389   0.410887
     3  C   -0.000700   0.043357  -0.031875  -0.030710  -0.054388  -0.052311
     4  C   -0.007966   0.008426  -0.008235  -0.009228  -0.001711  -0.003388
     5  C   -0.019418   0.002990  -0.001088  -0.001415   0.001887   0.002360
     6  C   -0.164571  -0.001305  -0.001074  -0.001264   0.006745   0.005865
     7  C    0.007184  -0.000341   0.000055   0.000036   0.000710   0.000749
     8  C   -0.186967  -0.000091  -0.000016  -0.000024   0.000407   0.000334
     9  C   -0.029092  -0.000008  -0.000001  -0.000001   0.000023   0.000026
    10  N    0.306109   0.000000   0.000000   0.000000   0.000001   0.000001
    11  C   -0.120109   0.000000   0.000000   0.000000   0.000004  -0.000002
    12  C   -0.141863   0.000000   0.000000   0.000000   0.000000   0.000000
    13  C    5.597683   0.000000   0.000000   0.000000  -0.000002   0.000004
    14  H    0.000000   0.534347  -0.021964  -0.021943  -0.002986  -0.003049
    15  H    0.000000  -0.021964   0.591454  -0.054950   0.013792  -0.018124
    16  H    0.000000  -0.021943  -0.054950   0.591420  -0.018010   0.013784
    17  H   -0.000002  -0.002986   0.013792  -0.018010   0.630336  -0.069885
    18  H    0.000004  -0.003049  -0.018124   0.013784  -0.069885   0.631309
    19  H   -0.000004  -0.001723   0.009999  -0.002497   0.019347  -0.024700
    20  H    0.000013  -0.001814  -0.002429   0.009884  -0.024787   0.019483
    21  H    0.000088   0.000481   0.001013  -0.000138   0.010117  -0.002353
    22  H   -0.000245   0.000445  -0.000122   0.001042  -0.002357   0.010134
    23  H    0.000473   0.000048   0.000111   0.000065  -0.000095   0.001655
    24  H   -0.000391   0.000034   0.000065   0.000117   0.001687  -0.000142
    25  H    0.000494  -0.000040  -0.000062   0.000004  -0.000680   0.000643
    26  H    0.002437  -0.000042   0.000005  -0.000064   0.000636  -0.000666
    27  H    0.000653   0.000000  -0.000002  -0.000010  -0.000096   0.000020
    28  H   -0.003614   0.000001  -0.000010  -0.000002   0.000013  -0.000094
    29  H    0.001637   0.000004   0.000003  -0.000003   0.000003  -0.000022
    30  H   -0.036781   0.000004  -0.000004   0.000003  -0.000022  -0.000001
    31  H   -0.015783   0.000000   0.000000   0.000000   0.000006  -0.000003
    32  H    0.016480   0.000000   0.000000   0.000000  -0.000003   0.000006
    33  H   -0.022565   0.000000   0.000000   0.000000   0.000000   0.000000
    34  H   -0.015420   0.000000   0.000000   0.000000  -0.000001   0.000001
    35  H    0.018707   0.000000   0.000000   0.000000  -0.000001   0.000000
    36  H   -0.021358   0.000000   0.000000   0.000000   0.000000   0.000000
    37  H   -0.015351   0.000000   0.000000   0.000000   0.000000   0.000000
    38  H    0.016850   0.000000   0.000000   0.000000   0.000000   0.000000
    39  H    0.374783   0.000000   0.000000   0.000000   0.000000  -0.000001
    40  H    0.385476   0.000000   0.000000   0.000000   0.000001  -0.000001
    41  H    0.385686   0.000000   0.000000   0.000000   0.000000   0.000000
              19         20         21         22         23         24
     1  C    0.014885   0.013594  -0.003010  -0.003857  -0.002544  -0.002809
     2  C   -0.063661  -0.064959   0.016105   0.016180  -0.006244  -0.006289
     3  C    0.455656   0.452286  -0.083160  -0.091716   0.021364   0.014130
     4  C   -0.070806  -0.069723   0.469419   0.472854  -0.096390  -0.096968
     5  C   -0.016935  -0.011457  -0.070238  -0.066885   0.481695   0.476156
     6  C   -0.000311  -0.001498  -0.012901  -0.013711  -0.066866  -0.065145
     7  C   -0.000272   0.000697   0.001596   0.005113  -0.017939  -0.008261
     8  C    0.000286  -0.000093  -0.002477  -0.003622   0.002979   0.004182
     9  C    0.000054   0.000088   0.000368   0.000559  -0.002672  -0.001154
    10  N   -0.000003  -0.000003  -0.000058  -0.000063   0.000216   0.000222
    11  C    0.000013  -0.000005  -0.000228   0.000086  -0.000383   0.000471
    12  C   -0.000002  -0.000002  -0.000008  -0.000006   0.000046   0.000069
    13  C   -0.000004   0.000013   0.000088  -0.000245   0.000473  -0.000391
    14  H   -0.001723  -0.001814   0.000481   0.000445   0.000048   0.000034
    15  H    0.009999  -0.002429   0.001013  -0.000122   0.000111   0.000065
    16  H   -0.002497   0.009884  -0.000138   0.001042   0.000065   0.000117
    17  H    0.019347  -0.024787   0.010117  -0.002357  -0.000095   0.001687
    18  H   -0.024700   0.019483  -0.002353   0.010134   0.001655  -0.000142
    19  H    0.646405  -0.089856   0.021468  -0.028010   0.004658   0.001507
    20  H   -0.089856   0.645903  -0.027697   0.021321   0.001542   0.004419
    21  H    0.021468  -0.027697   0.654528  -0.099740   0.022423  -0.028370
    22  H   -0.028010   0.021321  -0.099740   0.656352  -0.027986   0.022705
    23  H    0.004658   0.001542   0.022423  -0.027986   0.647245  -0.095796
    24  H    0.001507   0.004419  -0.028370   0.022705  -0.095796   0.646922
    25  H   -0.001081   0.003453  -0.002879   0.006375   0.016439  -0.023409
    26  H    0.003504  -0.001048   0.006458  -0.003218  -0.023488   0.016248
    27  H   -0.001098   0.001115  -0.002637   0.004994  -0.004354   0.007224
    28  H    0.001111  -0.001063   0.005081  -0.002689   0.007301  -0.004804
    29  H   -0.000123   0.000002  -0.000632   0.001068  -0.001562   0.004451
    30  H    0.000003  -0.000122   0.001020  -0.000500   0.004381  -0.001495
    31  H    0.000032  -0.000061   0.000032  -0.000202   0.000158   0.000563
    32  H   -0.000059   0.000031  -0.000206   0.000034   0.000544   0.000183
    33  H    0.000001   0.000000  -0.000012   0.000007  -0.000044   0.000048
    34  H   -0.000003  -0.000001   0.000079  -0.000089   0.000134  -0.000132
    35  H    0.000000   0.000000   0.000026  -0.000003   0.000076  -0.000162
    36  H    0.000000   0.000000   0.000000   0.000000   0.000000   0.000001
    37  H   -0.000001   0.000001  -0.000004   0.000005  -0.000014   0.000003
    38  H    0.000001  -0.000001   0.000005  -0.000004   0.000004  -0.000014
    39  H    0.000000   0.000000  -0.000004   0.000028  -0.000169   0.000080
    40  H   -0.000001  -0.000003  -0.000085   0.000076  -0.000128   0.000133
    41  H    0.000000   0.000001   0.000008  -0.000013   0.000051  -0.000046
              25         26         27         28         29         30
     1  C    0.000773   0.000779   0.000184   0.000203  -0.000034  -0.000031
     2  C   -0.003267  -0.003819   0.001148   0.001081   0.000638   0.000668
     3  C    0.004633   0.003237   0.000373   0.001083   0.002444   0.002789
     4  C    0.043490   0.038073   0.017900   0.016804   0.006867   0.006313
     5  C   -0.083251  -0.092752   0.044408   0.045727   0.026008   0.029318
     6  C    0.456240   0.455877  -0.056776  -0.058399   0.120645   0.117727
     7  C   -0.075205  -0.070110   0.438933   0.436651  -0.111667  -0.110813
     8  C   -0.030615  -0.022634  -0.084315  -0.081985   0.471095   0.470697
     9  C   -0.002583   0.000924  -0.026843  -0.026015  -0.121106  -0.122345
    10  N    0.001526   0.001574  -0.006121  -0.005892  -0.016583  -0.015538
    11  C    0.002290   0.000480  -0.003654   0.000588  -0.036153   0.001844
    12  C    0.000227   0.000302  -0.003203  -0.003127  -0.000622  -0.000836
    13  C    0.000494   0.002437   0.000653  -0.003614   0.001637  -0.036781
    14  H   -0.000040  -0.000042   0.000000   0.000001   0.000004   0.000004
    15  H   -0.000062   0.000005  -0.000002  -0.000010   0.000003  -0.000004
    16  H    0.000004  -0.000064  -0.000010  -0.000002  -0.000003   0.000003
    17  H   -0.000680   0.000636  -0.000096   0.000013   0.000003  -0.000022
    18  H    0.000643  -0.000666   0.000020  -0.000094  -0.000022  -0.000001
    19  H   -0.001081   0.003504  -0.001098   0.001111  -0.000123   0.000003
    20  H    0.003453  -0.001048   0.001115  -0.001063   0.000002  -0.000122
    21  H   -0.002879   0.006458  -0.002637   0.005081  -0.000632   0.001020
    22  H    0.006375  -0.003218   0.004994  -0.002689   0.001068  -0.000500
    23  H    0.016439  -0.023488  -0.004354   0.007301  -0.001562   0.004381
    24  H   -0.023409   0.016248   0.007224  -0.004804   0.004451  -0.001495
    25  H    0.649462  -0.098412   0.024579  -0.031109   0.003722  -0.000287
    26  H   -0.098412   0.651535  -0.030928   0.024574  -0.000204   0.003366
    27  H    0.024579  -0.030928   0.663529  -0.111564   0.029197  -0.042794
    28  H   -0.031109   0.024574  -0.111564   0.663031  -0.042648   0.029282
    29  H    0.003722  -0.000204   0.029197  -0.042648   0.648874  -0.109328
    30  H   -0.000287   0.003366  -0.042794   0.029282  -0.109328   0.650346
    31  H   -0.001165   0.003918  -0.006804   0.004979   0.005472  -0.012572
    32  H    0.003929  -0.001160   0.005133  -0.006950  -0.012577   0.005193
    33  H   -0.000097   0.000095   0.000357  -0.000258   0.005144  -0.002400
    34  H   -0.001434   0.001452  -0.001207   0.002049   0.001692  -0.000090
    35  H    0.000467  -0.000430  -0.000261   0.000969  -0.007269   0.003054
    36  H    0.000008   0.000013   0.000086   0.000087   0.000014  -0.000007
    37  H    0.000189  -0.000257   0.001458  -0.001010  -0.000953   0.001899
    38  H   -0.000253   0.000190  -0.001015   0.001443   0.001889  -0.000965
    39  H   -0.000432   0.000483   0.000959  -0.000273   0.003072  -0.007219
    40  H    0.001397  -0.001470   0.002051  -0.001211   0.000192   0.001936
    41  H    0.000102  -0.000096  -0.000267   0.000368  -0.002521   0.005136
              31         32         33         34         35         36
     1  C   -0.000004  -0.000004   0.000000   0.000000   0.000000   0.000000
     2  C   -0.000051  -0.000049  -0.000002  -0.000003   0.000005   0.000000
     3  C   -0.000055  -0.000014  -0.000015  -0.000003   0.000048  -0.000001
     4  C   -0.000900  -0.001013  -0.000174  -0.000038   0.000298   0.000016
     5  C   -0.001931  -0.001017  -0.000480   0.001271   0.001051  -0.000106
     6  C   -0.013706  -0.014431  -0.002341  -0.002292   0.000198   0.001616
     7  C    0.017386   0.019994   0.000222   0.013972  -0.005227  -0.001660
     8  C   -0.072595  -0.072708   0.025883   0.041219  -0.027549   0.021387
     9  C    0.353259   0.351850   0.014658  -0.069857   0.018927   0.025632
    10  N    0.006380   0.006272  -0.026583  -0.021540  -0.002369  -0.013675
    11  C    0.016500  -0.015528   0.385338   0.385751   0.375213  -0.021352
    12  C    0.018240   0.017399  -0.011968   0.011475  -0.020922   0.362485
    13  C   -0.015783   0.016480  -0.022565  -0.015420   0.018707  -0.021358
    14  H    0.000000   0.000000   0.000000   0.000000   0.000000   0.000000
    15  H    0.000000   0.000000   0.000000   0.000000   0.000000   0.000000
    16  H    0.000000   0.000000   0.000000   0.000000   0.000000   0.000000
    17  H    0.000006  -0.000003   0.000000  -0.000001  -0.000001   0.000000
    18  H   -0.000003   0.000006   0.000000   0.000001   0.000000   0.000000
    19  H    0.000032  -0.000059   0.000001  -0.000003   0.000000   0.000000
    20  H   -0.000061   0.000031   0.000000  -0.000001   0.000000   0.000000
    21  H    0.000032  -0.000206  -0.000012   0.000079   0.000026   0.000000
    22  H   -0.000202   0.000034   0.000007  -0.000089  -0.000003   0.000000
    23  H    0.000158   0.000544  -0.000044   0.000134   0.000076   0.000000
    24  H    0.000563   0.000183   0.000048  -0.000132  -0.000162   0.000001
    25  H   -0.001165   0.003929  -0.000097  -0.001434   0.000467   0.000008
    26  H    0.003918  -0.001160   0.000095   0.001452  -0.000430   0.000013
    27  H   -0.006804   0.005133   0.000357  -0.001207  -0.000261   0.000086
    28  H    0.004979  -0.006950  -0.000258   0.002049   0.000969   0.000087
    29  H    0.005472  -0.012577   0.005144   0.001692  -0.007269   0.000014
    30  H   -0.012572   0.005193  -0.002400  -0.000090   0.003054  -0.000007
    31  H    0.496941  -0.031105  -0.000578   0.000828  -0.000244  -0.000474
    32  H   -0.031105   0.496817  -0.003947   0.006152  -0.005676  -0.000484
    33  H   -0.000578  -0.003947   0.479513  -0.035617  -0.023110  -0.003483
    34  H    0.000828   0.006152  -0.035617   0.478751  -0.021023   0.000537
    35  H   -0.000244  -0.005676  -0.023110  -0.021023   0.460287   0.002513
    36  H   -0.000474  -0.000484  -0.003483   0.000537   0.002513   0.483269
    37  H   -0.005529   0.004074   0.000591  -0.001578  -0.000937  -0.025785
    38  H    0.004139  -0.005462   0.004264  -0.002387   0.000846  -0.025755
    39  H   -0.005556  -0.000239   0.003949   0.001585  -0.004552   0.002560
    40  H    0.006200   0.000877   0.003438  -0.004818   0.001592   0.000500
    41  H   -0.004015  -0.000572  -0.013409   0.003561   0.003960  -0.003490
              37         38         39         40         41
     1  C    0.000000   0.000000   0.000000   0.000000   0.000000
     2  C    0.000001   0.000001   0.000005  -0.000003  -0.000002
     3  C    0.000000   0.000000   0.000041  -0.000009  -0.000013
     4  C    0.000055   0.000057   0.000295   0.000006  -0.000176
     5  C    0.000077   0.000079   0.000909   0.001330  -0.000469
     6  C    0.000784   0.000800   0.000292  -0.001694  -0.002434
     7  C   -0.003190  -0.002962  -0.005896   0.015005   0.000199
     8  C   -0.012925  -0.013030  -0.026695   0.040535   0.025191
     9  C    0.001089   0.000882   0.018912  -0.070858   0.015147
    10  N   -0.011366  -0.011330  -0.002435  -0.021603  -0.026411
    11  C    0.016872  -0.015394   0.018805  -0.015460  -0.022664
    12  C    0.386177   0.386173  -0.020814   0.011578  -0.012010
    13  C   -0.015351   0.016850   0.374783   0.385476   0.385686
    14  H    0.000000   0.000000   0.000000   0.000000   0.000000
    15  H    0.000000   0.000000   0.000000   0.000000   0.000000
    16  H    0.000000   0.000000   0.000000   0.000000   0.000000
    17  H    0.000000   0.000000   0.000000   0.000001   0.000000
    18  H    0.000000   0.000000  -0.000001  -0.000001   0.000000
    19  H   -0.000001   0.000001   0.000000  -0.000001   0.000000
    20  H    0.000001  -0.000001   0.000000  -0.000003   0.000001
    21  H   -0.000004   0.000005  -0.000004  -0.000085   0.000008
    22  H    0.000005  -0.000004   0.000028   0.000076  -0.000013
    23  H   -0.000014   0.000004  -0.000169  -0.000128   0.000051
    24  H    0.000003  -0.000014   0.000080   0.000133  -0.000046
    25  H    0.000189  -0.000253  -0.000432   0.001397   0.000102
    26  H   -0.000257   0.000190   0.000483  -0.001470  -0.000096
    27  H    0.001458  -0.001015   0.000959   0.002051  -0.000267
    28  H   -0.001010   0.001443  -0.000273  -0.001211   0.000368
    29  H   -0.000953   0.001889   0.003072   0.000192  -0.002521
    30  H    0.001899  -0.000965  -0.007219   0.001936   0.005136
    31  H   -0.005529   0.004139  -0.005556   0.006200  -0.004015
    32  H    0.004074  -0.005462  -0.000239   0.000877  -0.000572
    33  H    0.000591   0.004264   0.003949   0.003438  -0.013409
    34  H   -0.001578  -0.002387   0.001585  -0.004818   0.003561
    35  H   -0.000937   0.000846  -0.004552   0.001592   0.003960
    36  H   -0.025785  -0.025755   0.002560   0.000500  -0.003490
    37  H    0.491885  -0.035643   0.000860  -0.002394   0.004242
    38  H   -0.035643   0.491799  -0.000946  -0.001571   0.000590
    39  H    0.000860  -0.000946   0.460658  -0.021072  -0.023340
    40  H   -0.002394  -0.001571  -0.021072   0.478705  -0.035601
    41  H    0.004242   0.000590  -0.023340  -0.035601   0.479902
 Mulliken charges:
               1
     1  C   -0.646386
     2  C   -0.247846
     3  C   -0.471604
     4  C   -0.328143
     5  C   -0.126811
     6  C   -0.004114
     7  C   -0.325252
     8  C    0.008758
     9  C   -0.541531
    10  N   -0.166477
    11  C   -0.312812
    12  C   -0.259370
    13  C   -0.312484
    14  H    0.156618
    15  H    0.136883
    16  H    0.136901
    17  H    0.129972
    18  H    0.129584
    19  H    0.122218
    20  H    0.122790
    21  H    0.126524
    22  H    0.125659
    23  H    0.133068
    24  H    0.133766
    25  H    0.135818
[...]
       Atomic Center   17 is at  -5.915522 -1.195730 -0.876548
       Atomic Center   18 is at  -5.915585 -1.195765  0.876375
       Atomic Center   19 is at  -4.711870  1.007356  0.877044
       Atomic Center   20 is at  -4.711805  1.007388 -0.877048
       Atomic Center   21 is at  -3.353497 -1.106236 -0.877202
       Atomic Center   22 is at  -3.353559 -1.106265  0.877220
       Atomic Center   23 is at  -2.149029  1.098345  0.877433
       Atomic Center   24 is at  -2.148965  1.098368 -0.877263
       Atomic Center   25 is at  -0.793305 -1.016185 -0.877790
       Atomic Center   26 is at  -0.793364 -1.016203  0.878006
       Atomic Center   27 is at   0.408946  1.188948  0.878547
       Atomic Center   28 is at   0.409006  1.188959 -0.878207
       Atomic Center   29 is at   1.750623 -0.927082 -0.881624
       Atomic Center   30 is at   1.750585 -0.927053  0.882055
       Atomic Center   31 is at   2.926668  1.300990  0.883433
       Atomic Center   32 is at   2.926484  1.301155 -0.882905
       Atomic Center   33 is at   5.538921 -1.230737 -1.233599
       Atomic Center   34 is at   3.816666 -1.677517 -1.212907
       Atomic Center   35 is at   4.350598 -0.232859 -2.111905
       Atomic Center   36 is at   6.353717  0.644644 -0.000780
       Atomic Center   37 is at   5.230963  1.704930  0.891069
       Atomic Center   38 is at   5.230398  1.704687 -0.892207
       Atomic Center   39 is at   4.351627 -0.232222  2.111865
       Atomic Center   40 is at   3.817507 -1.677236  1.213550
       Atomic Center   41 is at   5.539694 -1.230169  1.233294
 -----------------------------------------------------------------

              Electrostatic Properties (Atomic Units)

 -----------------------------------------------------------------
    Center     Electric         -------- Electric Field --------
               Potential          X             Y             Z
 -----------------------------------------------------------------
    1 Atom    -14.735828      0.002213     -0.001454      0.000000
    2 Atom    -14.722414     -0.000224      0.002609      0.000000
    3 Atom    -14.717707     -0.001171     -0.003024      0.000000
    4 Atom    -14.707508     -0.001707      0.002828      0.000000
    5 Atom    -14.694628     -0.002019     -0.002774      0.000000
    6 Atom    -14.676906     -0.002928      0.002439      0.000000
    7 Atom    -14.652420     -0.004034     -0.002162      0.000000
    8 Atom    -14.623479     -0.005498      0.001270      0.000000
    9 Atom    -14.562793     -0.010965      0.001823      0.000001
   10 Atom    -18.102149     -0.002116      0.000708      0.000000
   11 Atom    -14.562790      0.001285     -0.004993     -0.007231
   12 Atom    -14.562028      0.006036      0.006213     -0.000003
   13 Atom    -14.562788      0.001289     -0.004989      0.007231
   14 Atom     -1.078751     -0.014456     -0.010817     -0.000001
   15 Atom     -1.078712     -0.001347      0.010494      0.014444
   16 Atom     -1.078712     -0.001346      0.010494     -0.014444
   17 Atom     -1.078294      0.000221     -0.010735     -0.014196
   18 Atom     -1.078294      0.000220     -0.010735      0.014196
   19 Atom     -1.070666     -0.000492      0.010687      0.014152
   20 Atom     -1.070666     -0.000492      0.010687     -0.014151
   21 Atom     -1.060830      0.000255     -0.010686     -0.014167
   22 Atom     -1.060830      0.000255     -0.010686      0.014166
   23 Atom     -1.048251     -0.000553      0.010699      0.014192
   24 Atom     -1.048251     -0.000552      0.010699     -0.014192
   25 Atom     -1.030912      0.000162     -0.010710     -0.014229
   26 Atom     -1.030913      0.000161     -0.010710      0.014229
   27 Atom     -1.008130     -0.000687      0.010764      0.014322
   28 Atom     -1.008129     -0.000685      0.010764     -0.014322
   29 Atom     -0.976184     -0.000186     -0.010711     -0.014566
   30 Atom     -0.976187     -0.000182     -0.010716      0.014570
   31 Atom     -0.937654     -0.000637      0.011137      0.015020
   32 Atom     -0.937658     -0.000643      0.011139     -0.015019
   33 Atom     -0.924842      0.017585     -0.006866     -0.000462
   34 Atom     -0.926213     -0.012185     -0.014732     -0.000059
   35 Atom     -0.924830     -0.002886      0.010309     -0.015559
   36 Atom     -0.924262      0.017438     -0.007305     -0.000004
   37 Atom     -0.924513     -0.001886      0.010922      0.015363
   38 Atom     -0.924513     -0.001894      0.010916     -0.015363
   39 Atom     -0.924830     -0.002880      0.010313      0.015557
   40 Atom     -0.926211     -0.012190     -0.014737      0.000069
   41 Atom     -0.924840      0.017586     -0.006865      0.000456
 -----------------------------------------------------------------
 -----------------------------------------------------
    Center         ---- Electric Field Gradient ----
                     XX            YY            ZZ
 -----------------------------------------------------
    1 Atom     -500.303943   -500.279423   -500.254440
    2 Atom     -500.309886   -500.286660   -500.223227
    3 Atom     -500.364341   -500.356900   -500.295805
    4 Atom     -500.354022   -500.349181   -500.282539
    5 Atom     -500.364659   -500.343072   -500.277675
    6 Atom     -500.367639   -500.353441   -500.276570
    7 Atom     -500.409866   -500.343860   -500.265520
    8 Atom     -500.376480   -500.329145   -500.235127
    9 Atom     -500.978865   -500.628496   -500.434831
   10 Atom     -812.773817   -812.821361   -812.834685
   11 Atom     -500.303580   -500.493201   -500.738950
   12 Atom     -500.645155   -500.675702   -500.325589
   13 Atom     -500.303669   -500.492989   -500.739054
   14 Atom       -1.976490     -1.856913     -1.683346
   15 Atom       -1.693314     -1.842273     -1.984882
   16 Atom       -1.693311     -1.842286     -1.984872
   17 Atom       -1.712183     -1.863192     -1.991031
   18 Atom       -1.712182     -1.863208     -1.991015
   19 Atom       -1.711275     -1.859674     -1.987869
   20 Atom       -1.711274     -1.859690     -1.987854
   21 Atom       -1.711226     -1.859391     -1.987919
   22 Atom       -1.711224     -1.859405     -1.987905
   23 Atom       -1.710742     -1.858217     -1.987190
   24 Atom       -1.710741     -1.858229     -1.987180
   25 Atom       -1.710574     -1.856843     -1.986543
   26 Atom       -1.710571     -1.856850     -1.986534
   27 Atom       -1.709353     -1.853229     -1.984307
   28 Atom       -1.709356     -1.853236     -1.984306
   29 Atom       -1.708129     -1.852306     -1.989743
   30 Atom       -1.708118     -1.852291     -1.989757
   31 Atom       -1.715677     -1.843867     -1.987436
   32 Atom       -1.715693     -1.843957     -1.987370
   33 Atom       -2.070242     -1.727750     -1.686981
   34 Atom       -1.868069     -1.938958     -1.690173
   35 Atom       -1.678248     -1.832495     -1.970789
   36 Atom       -2.046899     -1.771487     -1.667745
   37 Atom       -1.689848     -1.816231     -1.977867
   38 Atom       -1.689922     -1.816119     -1.977911
   39 Atom       -1.678208     -1.832599     -1.970719
   40 Atom       -1.868013     -1.939041     -1.690161
   41 Atom       -2.070282     -1.727697     -1.686993
 -----------------------------------------------------
 -----------------------------------------------------
    Center         ---- Electric Field Gradient ----
                     XY            XZ            YZ
 -----------------------------------------------------
    1 Atom        0.042807     -0.000001      0.000001
    2 Atom       -0.012692     -0.000003     -0.000002
    3 Atom        0.024117     -0.000002      0.000000
    4 Atom       -0.032147     -0.000003     -0.000003
    5 Atom        0.041037     -0.000002      0.000002
    6 Atom       -0.059466     -0.000005     -0.000006
    7 Atom        0.085124     -0.000011      0.000008
    8 Atom       -0.092656     -0.000006     -0.000007
    9 Atom        0.316434      0.000091     -0.000056
   10 Atom       -0.024638     -0.000021      0.000010
   11 Atom        0.059798      0.076425     -0.300342
   12 Atom       -0.332036      0.000154      0.000158
   13 Atom        0.059940     -0.076696      0.300235
   14 Atom       -0.218611     -0.000013     -0.000010
   15 Atom        0.018025      0.019909     -0.215720
   16 Atom        0.018011     -0.019889      0.215726
   17 Atom        0.005863      0.009090     -0.213762
   18 Atom        0.005848     -0.009070      0.213768
   19 Atom        0.005338      0.006557     -0.212612
   20 Atom        0.005323     -0.006537      0.212617
   21 Atom        0.005541      0.009265     -0.212532
   22 Atom        0.005527     -0.009245      0.212536
   23 Atom        0.004796      0.005146     -0.212554
   24 Atom        0.004780     -0.005126      0.212558
   25 Atom        0.005787      0.010737     -0.212171
   26 Atom        0.005773     -0.010718      0.212174
   27 Atom        0.004523      0.003171     -0.212092
   28 Atom        0.004508     -0.003151      0.212094
   29 Atom        0.003612      0.009537     -0.213018
   30 Atom        0.003600     -0.009524      0.213017
   31 Atom        0.006894     -0.003450     -0.210085
   32 Atom        0.006937      0.003394      0.210110
   33 Atom        0.145729     -0.006677     -0.009870
   34 Atom       -0.224846      0.014049      0.001160
   35 Atom        0.044605     -0.054796      0.198679
   36 Atom        0.165197      0.000097     -0.000038
   37 Atom        0.020938      0.053839     -0.204301
   38 Atom        0.021053     -0.054027      0.204242
   39 Atom        0.044552      0.054675     -0.198733
   40 Atom       -0.224848     -0.013900     -0.000983
   41 Atom        0.145680      0.006814      0.009814
 -----------------------------------------------------
 -----------------------------------------------------
    Center         ---- Electric Field Gradient ----
                   ----       Eigenvalues       ----
 -----------------------------------------------------
    1 Atom     -500.336211   -500.254440   -500.247155
    2 Atom     -500.315476   -500.281070   -500.223227
    3 Atom     -500.385023   -500.336218   -500.295805
    4 Atom     -500.383839   -500.319364   -500.282539
    5 Atom     -500.396298   -500.311433   -500.277675
    6 Atom     -500.420428   -500.300651   -500.276570
    7 Atom     -500.468161   -500.285565   -500.265520
    8 Atom     -500.448443   -500.257182   -500.235127
    9 Atom     -501.165371   -500.441990   -500.434831
   10 Atom     -812.834685   -812.831826   -812.763352
   11 Atom     -500.954962   -500.297458   -500.283312
   12 Atom     -500.992816   -500.328041   -500.325589
   13 Atom     -500.954960   -500.297442   -500.283309
   14 Atom       -2.143341     -1.690062     -1.683346
   15 Atom       -2.142364     -1.693029     -1.685076
   16 Atom       -2.142365     -1.693029     -1.685076
   17 Atom       -2.150492     -1.711984     -1.703931
   18 Atom       -2.150491     -1.711983     -1.703930
   19 Atom       -2.145999     -1.711126     -1.701693
   20 Atom       -2.145999     -1.711126     -1.701693
   21 Atom       -2.145955     -1.711082     -1.701498
   22 Atom       -2.145955     -1.711082     -1.701498
   23 Atom       -2.144937     -1.710690     -1.700521
   24 Atom       -2.144938     -1.710691     -1.700522
   25 Atom       -2.143890     -1.710519     -1.699550
   26 Atom       -2.143888     -1.710517     -1.699549
   27 Atom       -2.140819     -1.709532     -1.696538
   28 Atom       -2.140822     -1.709535     -1.696540
   29 Atom       -2.145073     -1.708547     -1.696558
   30 Atom       -2.145076     -1.708537     -1.696553
   31 Atom       -2.137665     -1.718049     -1.691265
   32 Atom       -2.137676     -1.718065     -1.691278
   33 Atom       -2.123875     -1.693776     -1.667323
   34 Atom       -2.131363     -1.695078     -1.670759
   35 Atom       -2.123183     -1.692102     -1.666247
   36 Atom       -2.124258     -1.694127     -1.667745
   37 Atom       -2.124060     -1.693050     -1.666837
   38 Atom       -2.124058     -1.693054     -1.666840
   39 Atom       -2.123181     -1.692100     -1.666245
   40 Atom       -2.131379     -1.695080     -1.670757
   41 Atom       -2.123874     -1.693776     -1.667322
 -----------------------------------------------------
 -----------------------------------------------------
    Center         ---- Electric Field Gradient ----
                       ( tensor representation )
                   3XX-RR        3YY-RR        3ZZ-RR
 -----------------------------------------------------
    1 Atom       -0.024675     -0.000154      0.024829
    2 Atom       -0.036628     -0.013402      0.050030
    3 Atom       -0.025325     -0.017885      0.043210
    4 Atom       -0.025441     -0.020600      0.046042
    5 Atom       -0.036190     -0.014603      0.050793
    6 Atom       -0.035089     -0.020891      0.055980
    7 Atom       -0.070117     -0.004111      0.074229
    8 Atom       -0.062896     -0.015562      0.078457
    9 Atom       -0.298134      0.052234      0.245900
   10 Atom        0.036138     -0.011407     -0.024731
   11 Atom        0.208330      0.018710     -0.227040
   12 Atom       -0.096339     -0.126887      0.223227
   13 Atom        0.208235      0.018915     -0.227150
   14 Atom       -0.137574     -0.017996      0.155570
   15 Atom        0.146843     -0.002117     -0.144726
   16 Atom        0.146845     -0.002130     -0.144716
   17 Atom        0.143285     -0.007723     -0.135562
   18 Atom        0.143287     -0.007740     -0.135547
   19 Atom        0.141665     -0.006735     -0.134930
   20 Atom        0.141665     -0.006751     -0.134915
   21 Atom        0.141619     -0.006546     -0.135074
   22 Atom        0.141620     -0.006560     -0.135060
   23 Atom        0.141308     -0.006167     -0.135140
   24 Atom        0.141309     -0.006179     -0.135130
   25 Atom        0.140746     -0.005523     -0.135223
   26 Atom        0.140748     -0.005532     -0.135215
   27 Atom        0.139610     -0.004266     -0.135344
   28 Atom        0.139610     -0.004270     -0.135340
   29 Atom        0.141930     -0.002246     -0.139684
   30 Atom        0.141938     -0.002236     -0.139702
   31 Atom        0.133316      0.005126     -0.138442
   32 Atom        0.133314      0.005049     -0.138363
   33 Atom       -0.241917      0.100574      0.141343
   34 Atom       -0.035669     -0.106558      0.142227
   35 Atom        0.148929     -0.005318     -0.143612
   36 Atom       -0.218189      0.057223      0.160966
   37 Atom        0.138134      0.011751     -0.149885
   38 Atom        0.138062      0.011865     -0.149927
   39 Atom        0.148967     -0.005424     -0.143543
   40 Atom       -0.035608     -0.106636      0.142244
   41 Atom       -0.241958      0.100627      0.141331
 -----------------------------------------------------
 -----------------------------------------------------
    Center         ---- Electric Field Gradient ----
                       ( tensor representation )
                   ----       Eigenvalues       ----
 -----------------------------------------------------
    1 Atom       -0.056942      0.024829      0.032113
    2 Atom       -0.042218     -0.007812      0.050030
    3 Atom       -0.046007      0.002797      0.043210
    4 Atom       -0.055259      0.009217      0.046042
    5 Atom       -0.067829      0.017036      0.050793
    6 Atom       -0.087878      0.031898      0.055980
    7 Atom       -0.128413      0.054184      0.074229
    8 Atom       -0.134859      0.056402      0.078457
    9 Atom       -0.484640      0.238741      0.245900
   10 Atom       -0.024731     -0.021871      0.046602
   11 Atom       -0.443052      0.214453      0.228599
   12 Atom       -0.444001      0.220774      0.223227
   13 Atom       -0.443057      0.214462      0.228595
   14 Atom       -0.304425      0.148855      0.155570
   15 Atom       -0.302208      0.147127      0.155080
   16 Atom       -0.302208      0.147128      0.155081
   17 Atom       -0.295023      0.143485      0.151538
   18 Atom       -0.295023      0.143485      0.151538
   19 Atom       -0.293060      0.141814      0.151246
   20 Atom       -0.293060      0.141814      0.151246
   21 Atom       -0.293110      0.141763      0.151347
   22 Atom       -0.293110      0.141763      0.151347
   23 Atom       -0.292887      0.141359      0.151528
   24 Atom       -0.292887      0.141359      0.151528
   25 Atom       -0.292570      0.140801      0.151769
   26 Atom       -0.292570      0.140801      0.151769
   27 Atom       -0.291856      0.139431      0.152425
   28 Atom       -0.291856      0.139431      0.152425
   29 Atom       -0.295014      0.141512      0.153502
   30 Atom       -0.295021      0.141518      0.153503
   31 Atom       -0.288672      0.130944      0.157728
   32 Atom       -0.288670      0.130941      0.157729
   33 Atom       -0.295550      0.134549      0.161002
   34 Atom       -0.298963      0.137322      0.161641
   35 Atom       -0.296006      0.135076      0.160930
   36 Atom       -0.295548      0.134583      0.160966
   37 Atom       -0.296077      0.134932      0.161146
   38 Atom       -0.296075      0.134930      0.161144
   39 Atom       -0.296005      0.135075      0.160930
   40 Atom       -0.298974      0.137325      0.161649
   41 Atom       -0.295550      0.134548      0.161002
 -----------------------------------------------------

 Test job not archived.
 1|1|UNPC-NP-ALMACH|FOpt|RB3LYP|6-311++G(d,p)|C12H28N1(1+)|HERA|27-Aug-
 2018|0||# RB3LYP/6-311++G** Opt Test prop=EFG||C12NH28||1,1|C,-3.35050
 29986,-5.5835561978,-0.0299149025|C,-2.0373925133,-4.796037455,-0.0307
 240923|C,-2.2446572747,-3.2770278284,-0.0233790237|C,-0.9346838666,-2.
 4810255763,-0.0241402459|C,-1.1445688238,-0.9623182593,-0.0167915014|C
 ,0.1677640422,-0.1694179595,-0.0175694791|C,-0.0476244454,1.3491314562
 ,-0.0102092681|C,1.2772838364,2.1347683801,-0.0110559528|C,0.997974771
 6,3.6332381763,-0.0036320103|N,2.2242447449,4.5594898604,-0.0038387932
 |C,3.0607279933,4.3445462566,-1.237205576|C,1.72983627,5.9833239117,0.
 0034873646|C,3.0686949568,4.3346563964,1.2223154594|H,-3.1676160121,-6
 .6610445384,-0.0352368539|H,-3.9500920292,-5.3535255486,0.8562261563|H
 ,-3.9558290642,-5.3457749769,-0.9100894026|H,-1.4446376912,-5.07473293
 32,-0.910349867|H,-1.4389391599,-5.0824326727,0.8425471091|H,-2.838149
 4126,-2.9980435724,0.8568339285|H,-2.8438493806,-2.9903386681,-0.89723
 15595|H,-0.3419513661,-2.7604238236,-0.9045166881|H,-0.3362516642,-2.7
 681266609,0.8498791535|H,-1.7364091038,-0.6823256353,0.8637190641|H,-1
 .7421032372,-0.6746224561,-0.8909501758|H,0.7593963347,-0.4474832224,-
 0.8986191815|H,0.7650911844,-0.4551845135,0.8571507737|H,-0.6365684754
 ,1.6288952528,0.8713156407|H,-0.6422603815,1.6365979747,-0.8854121081|
 H,1.8540700388,1.8506042171,-0.8960111818|H,1.8597591342,1.842909493,0
 .8676425789|H,0.4256906471,3.9142788429,0.8826945955|H,0.4197181025,3.
 9218774739,-0.8836169625|H,3.8702010613,5.0729977996,-1.2405207529|H,3
 .4720212863,3.3387986578,-1.2260810367|H,2.4337592585,4.4829392482,-2.
 1167393437|H,2.586321198,6.6557679422,0.0033762409|H,1.1305169626,6.14
 49717793,0.8977476089|H,1.1246761925,6.1521184781,-0.8855050555|H,2.44
 73964457,4.4657664048,2.106974161|H,3.480046218,3.3291157887,1.2003431
 382|H,3.8780722206,5.0632107077,1.2263400421||Version=EM64W-G09RevD.01
 |State=1-A|HF=-528.8236519|RMSD=7.730e-009|RMSF=3.888e-006|Dipole=3.29
 75715,6.2646945,0.016457|Quadrupole=-8.7875668,30.3834023,-21.5958355,
 27.5930188,0.0780602,0.1357058|PG=C01 [X(C12H28N1)]||@


 THE PROBLEM WITH THE LADDER OF SUCCESS IS YOU CAN'T
 CLIMB IT WHILE YOU'RE TWIDDLING YOUR THUMBS.
 Job cpu time:       0 days  0 hours 28 minutes 13.0 seconds.
 File lengths (MBytes):  RWF=    104 Int=      0 D2E=      0 Chk=     17 Scr=      1
 Normal termination of Gaussian 09 at Mon Aug 27 21:17:29 2018.
