 Entering Link 1 = C:\G09W\l1.exe PID=      7484.
  
 Copyright (c) 1988,1990,1992,1993,1995,1998,2003,2009,2013,
            Gaussian, Inc.  All Rights Reserved.
  
 This is part of the Gaussian(R) 09 program.  It is based on
 the Gaussian(R) 03 system (copyright 2003, Gaussian, Inc.),
 the Gaussian(R) 98 system (copyright 1998, Gaussian, Inc.),
 the Gaussian(R) 94 system (copyright 1995, Gaussian, Inc.),
 the Gaussian 92(TM) system (copyright 1992, Gaussian, Inc.),
 the Gaussian 90(TM) system (copyright 1990, Gaussian, Inc.),
 the Gaussian 88(TM) system (copyright 1988, Gaussian, Inc.),
 the Gaussian 86(TM) system (copyright 1986, Carnegie Mellon
 University), and the Gaussian 82(TM) system (copyright 1983,
 Carnegie Mellon University). Gaussian is a federally registered
 trademark of Gaussian, Inc.
  
 This software contains proprietary and confidential information,
 including trade secrets, belonging to Gaussian, Inc.
  
 This software is provided under written license and may be
 used, copied, transmitted, or stored only in accord with that
 written license.
  
 The following legend is applicable only to US Government
 contracts under FAR:
  
                    RESTRICTED RIGHTS LEGEND
  
 Use, reproduction and disclosure by the US Government is
 subject to restrictions as set forth in subparagraphs (a)
 and (c) of the Commercial Computer Software - Restricted
 Rights clause in FAR 52.227-19.
  
 Gaussian, Inc.
 340 Quinnipiac St., Bldg. 40, Wallingford CT 06492
  
  
 ---------------------------------------------------------------
 Warning -- This program may not be used in any manner that
 competes with the business of Gaussian, Inc. or will provide
 assistance to any competitor of Gaussian, Inc.  The licensee
 of this program is prohibited from giving any competitor of
 Gaussian, Inc. access to this program.  By using this program,
 the user acknowledges that Gaussian, Inc. is engaged in the
 business of creating and licensing software in the field of
 computational chemistry and represents and warrants to the
 licensee that it is not a competitor of Gaussian, Inc. and that
 it will not use this program in any manner prohibited above.
 ---------------------------------------------------------------
  

 Cite this work as:
 Gaussian 09, Revision D.01,
 M. J. Frisch, G. W. Trucks, H. B. Schlegel, G. E. Scuseria, 
 M. A. Robb, J. R. Cheeseman, G. Scalmani, V. Barone, B. Mennucci, 
 G. A. Petersson, H. Nakatsuji, M. Caricato, X. Li, H. P. Hratchian, 
 A. F. Izmaylov, J. Bloino, G. Zheng, J. L. Sonnenberg, M. Hada, 
 M. Ehara, K. Toyota, R. Fukuda, J. Hasegawa, M. Ishida, T. Nakajima, 
 Y. Honda, O. Kitao, H. Nakai, T. Vreven, J. A. Montgomery, Jr., 
 J. E. Peralta, F. Ogliaro, M. Bearpark, J. J. Heyd, E. Brothers, 
 K. N. Kudin, V. N. Staroverov, T. Keith, R. Kobayashi, J. Normand, 
 K. Raghavachari, A. Rendell, J. C. Burant, S. S. Iyengar, J. Tomasi, 
 M. Cossi, N. Rega, J. M. Millam, M. Klene, J. E. Knox, J. B. Cross, 
 V. Bakken, C. Adamo, J. Jaramillo, R. Gomperts, R. E. Stratmann, 
 O. Yazyev, A. J. Austin, R. Cammi, C. Pomelli, J. W. Ochterski, 
 R. L. Martin, K. Morokuma, V. G. Zakrzewski, G. A. Voth, 
 P. Salvador, J. J. Dannenberg, S. Dapprich, A. D. Daniels, 
 O. Farkas, J. B. Foresman, J. V. Ortiz, J. Cioslowski, 
 and D. J. Fox, Gaussian, Inc., Wallingford CT, 2013.
 
 ******************************************
 Gaussian 09:  EM64W-G09RevD.01 13-Apr-2013
                06-Aug-2018 
 ******************************************
 %Chk=Anth_289.chk
 %Mem=64GB
 %NProcShared=20
 Will use up to   20 processors via shared memory.
 -------------------------------------
 # RB3LYP/6-311++G** Opt Test prop=EFG
 -------------------------------------
 1/14=-1,18=20,19=15,26=3,38=1/1,3;
 2/9=110,12=2,17=6,18=5,40=1/2;
 3/5=4,6=6,7=1111,11=2,16=1,25=1,30=1,71=1,74=-5,116=1/1,2,3;
 4//1;
 5/5=2,38=5/2;
 6/7=2,8=2,9=2,10=2,14=1,28=1/1,2;
 7//1,2,3,16;
 1/14=-1,18=20,19=15,26=3/3(2);
 2/9=110/2;
 99//99;
 2/9=110/2;
 3/5=4,6=6,7=1111,11=2,16=1,25=1,30=1,71=1,74=-5,116=1/1,2,3;
 4/5=5,16=3,69=1/1;
 5/5=2,38=5/2;
 7//1,2,3,16;
 1/14=-1,18=20,19=15,26=3/3(-5);
 2/9=110/2;
 6/7=2,8=2,9=2,10=2,14=1,19=2,28=1/1,2;
 99/9=1/99;
 -------
 C6N2H18
 -------
 Symbolic Z-matrix:
 Charge =  2 Multiplicity = 1
 N                    -2.17165  -3.82853   0.0001 
 C                    -0.85086  -3.1076   -0.00013 
 C                    -1.14938  -1.60039   0.0001 
 C                     0.13988  -0.75707  -0.00012 
 C                    -0.13988   0.75707   0.00011 
 C                     1.14938   1.60039  -0.0001 
 C                     0.85086   3.1076    0.00013 
 N                     2.17165   3.82853  -0.0001 
 H                    -2.00534  -4.86016  -0.00005 
 H                    -2.71304  -3.56212   0.8533 
 H                    -2.71343  -3.56194  -0.85279 
 H                    -0.27547  -3.40238  -0.90724 
 H                    -0.27506  -3.40257   0.90666 
 H                    -1.75765  -1.34353   0.9001 
 H                    -1.75806  -1.34334  -0.89956 
 H                     0.74777  -1.01737  -0.89915 
 H                     0.74818  -1.01755   0.89859 
 H                    -0.74777   1.01737   0.89915 
 H                    -0.74818   1.01755  -0.89859 
 H                     1.75765   1.34353  -0.9001 
 H                     1.75806   1.34334   0.89956 
 H                     0.27547   3.40238   0.90724 
 H                     0.27505   3.40257  -0.90666 
 H                     2.00534   4.86016   0.00005 
 H                     2.71304   3.56212  -0.8533 
 H                     2.71343   3.56194   0.85279 
 

 GradGradGradGradGradGradGradGradGradGradGradGradGradGradGradGradGradGrad
 Berny optimization.
 Initialization pass.
                           ----------------------------
                           !    Initial Parameters    !
                           ! (Angstroms and Degrees)  !
 --------------------------                            --------------------------
 ! Name  Definition              Value          Derivative Info.                !
 --------------------------------------------------------------------------------
 ! R1    R(1,2)                  1.5047         estimate D2E/DX2                !
 ! R2    R(1,9)                  1.045          estimate D2E/DX2                !
 ! R3    R(1,10)                 1.045          estimate D2E/DX2                !
 ! R4    R(1,11)                 1.045          estimate D2E/DX2                !
 ! R5    R(2,3)                  1.5365         estimate D2E/DX2                !
 ! R6    R(2,12)                 1.1139         estimate D2E/DX2                !
 ! R7    R(2,13)                 1.1139         estimate D2E/DX2                !
 ! R8    R(3,4)                  1.5406         estimate D2E/DX2                !
 ! R9    R(3,14)                 1.1162         estimate D2E/DX2                !
 ! R10   R(3,15)                 1.1162         estimate D2E/DX2                !
 ! R11   R(4,5)                  1.5398         estimate D2E/DX2                !
 ! R12   R(4,16)                 1.116          estimate D2E/DX2                !
 ! R13   R(4,17)                 1.116          estimate D2E/DX2                !
 ! R14   R(5,6)                  1.5406         estimate D2E/DX2                !
 ! R15   R(5,18)                 1.116          estimate D2E/DX2                !
 ! R16   R(5,19)                 1.116          estimate D2E/DX2                !
 ! R17   R(6,7)                  1.5365         estimate D2E/DX2                !
 ! R18   R(6,20)                 1.1162         estimate D2E/DX2                !
 ! R19   R(6,21)                 1.1162         estimate D2E/DX2                !
 ! R20   R(7,8)                  1.5047         estimate D2E/DX2                !
 ! R21   R(7,22)                 1.1139         estimate D2E/DX2                !
 ! R22   R(7,23)                 1.1139         estimate D2E/DX2                !
 ! R23   R(8,24)                 1.045          estimate D2E/DX2                !
 ! R24   R(8,25)                 1.045          estimate D2E/DX2                !
 ! R25   R(8,26)                 1.045          estimate D2E/DX2                !
 ! A1    A(2,1,9)              109.4687         estimate D2E/DX2                !
 ! A2    A(2,1,10)             109.4342         estimate D2E/DX2                !
 ! A3    A(2,1,11)             109.434          estimate D2E/DX2                !
 ! A4    A(9,1,10)             109.5273         estimate D2E/DX2                !
 ! A5    A(9,1,11)             109.5277         estimate D2E/DX2                !
 ! A6    A(10,1,11)            109.4354         estimate D2E/DX2                !
 ! A7    A(1,2,3)              107.4239         estimate D2E/DX2                !
 ! A8    A(1,2,12)             109.0707         estimate D2E/DX2                !
 ! A9    A(1,2,13)             109.0705         estimate D2E/DX2                !
 ! A10   A(3,2,12)             111.1049         estimate D2E/DX2                !
 ! A11   A(3,2,13)             111.1044         estimate D2E/DX2                !
 ! A12   A(12,2,13)            109.0155         estimate D2E/DX2                !
 ! A13   A(2,3,4)              111.9858         estimate D2E/DX2                !
 ! A14   A(2,3,14)             109.3736         estimate D2E/DX2                !
 ! A15   A(2,3,15)             109.3732         estimate D2E/DX2                !
 ! A16   A(4,3,14)             109.28           estimate D2E/DX2                !
 ! A17   A(4,3,15)             109.2795         estimate D2E/DX2                !
 ! A18   A(14,3,15)            107.4402         estimate D2E/DX2                !
 ! A19   A(3,4,5)              112.7206         estimate D2E/DX2                !
 ! A20   A(3,4,16)             109.1636         estimate D2E/DX2                !
 ! A21   A(3,4,17)             109.1629         estimate D2E/DX2                !
 ! A22   A(5,4,16)             109.1738         estimate D2E/DX2                !
 ! A23   A(5,4,17)             109.1732         estimate D2E/DX2                !
 ! A24   A(16,4,17)            107.3002         estimate D2E/DX2                !
 ! A25   A(4,5,6)              112.7205         estimate D2E/DX2                !
 ! A26   A(4,5,18)             109.1738         estimate D2E/DX2                !
 ! A27   A(4,5,19)             109.1731         estimate D2E/DX2                !
 ! A28   A(6,5,18)             109.1636         estimate D2E/DX2                !
 ! A29   A(6,5,19)             109.163          estimate D2E/DX2                !
 ! A30   A(18,5,19)            107.3003         estimate D2E/DX2                !
 ! A31   A(5,6,7)              111.9858         estimate D2E/DX2                !
 ! A32   A(5,6,20)             109.2801         estimate D2E/DX2                !
 ! A33   A(5,6,21)             109.2796         estimate D2E/DX2                !
 ! A34   A(7,6,20)             109.3736         estimate D2E/DX2                !
 ! A35   A(7,6,21)             109.3732         estimate D2E/DX2                !
 ! A36   A(20,6,21)            107.4401         estimate D2E/DX2                !
 ! A37   A(6,7,8)              107.4238         estimate D2E/DX2                !
 ! A38   A(6,7,22)             111.1048         estimate D2E/DX2                !
 ! A39   A(6,7,23)             111.1044         estimate D2E/DX2                !
 ! A40   A(8,7,22)             109.0708         estimate D2E/DX2                !
 ! A41   A(8,7,23)             109.0706         estimate D2E/DX2                !
 ! A42   A(22,7,23)            109.0156         estimate D2E/DX2                !
 ! A43   A(7,8,24)             109.4686         estimate D2E/DX2                !
 ! A44   A(7,8,25)             109.4342         estimate D2E/DX2                !
 ! A45   A(7,8,26)             109.434          estimate D2E/DX2                !
 ! A46   A(24,8,25)            109.5272         estimate D2E/DX2                !
 ! A47   A(24,8,26)            109.5277         estimate D2E/DX2                !
 ! A48   A(25,8,26)            109.4355         estimate D2E/DX2                !
 ! D1    D(9,1,2,3)           -179.9999         estimate D2E/DX2                !
 ! D2    D(9,1,2,12)            59.4824         estimate D2E/DX2                !
 ! D3    D(9,1,2,13)           -59.4828         estimate D2E/DX2                !
 ! D4    D(10,1,2,3)           -59.9555         estimate D2E/DX2                !
 ! D5    D(10,1,2,12)          179.5268         estimate D2E/DX2                !
 ! D6    D(10,1,2,13)           60.5617         estimate D2E/DX2                !
 ! D7    D(11,1,2,3)            59.9553         estimate D2E/DX2                !
 ! D8    D(11,1,2,12)          -60.5624         estimate D2E/DX2                !
 ! D9    D(11,1,2,13)         -179.5276         estimate D2E/DX2                !
 ! D10   D(1,2,3,4)           -179.9996         estimate D2E/DX2                !
 ! D11   D(1,2,3,14)            58.7068         estimate D2E/DX2                !
 ! D12   D(1,2,3,15)           -58.707          estimate D2E/DX2                !
 ! D13   D(12,2,3,4)           -60.7772         estimate D2E/DX2                !
 ! D14   D(12,2,3,14)          177.9292         estimate D2E/DX2                !
 ! D15   D(12,2,3,15)           60.5153         estimate D2E/DX2                !
 ! D16   D(13,2,3,4)            60.7785         estimate D2E/DX2                !
 ! D17   D(13,2,3,14)          -60.5151         estimate D2E/DX2                !
 ! D18   D(13,2,3,15)         -177.929          estimate D2E/DX2                !
 ! D19   D(2,3,4,5)           -179.9999         estimate D2E/DX2                !
 ! D20   D(2,3,4,16)            58.5018         estimate D2E/DX2                !
 ! D21   D(2,3,4,17)           -58.5028         estimate D2E/DX2                !
 ! D22   D(14,3,4,5)           -58.6524         estimate D2E/DX2                !
 ! D23   D(14,3,4,16)          179.8493         estimate D2E/DX2                !
 ! D24   D(14,3,4,17)           62.8447         estimate D2E/DX2                !
 ! D25   D(15,3,4,5)            58.6535         estimate D2E/DX2                !
 ! D26   D(15,3,4,16)          -62.8448         estimate D2E/DX2                !
 ! D27   D(15,3,4,17)         -179.8494         estimate D2E/DX2                !
 ! D28   D(3,4,5,6)            180.0            estimate D2E/DX2                !
 ! D29   D(3,4,5,18)            58.5075         estimate D2E/DX2                !
 ! D30   D(3,4,5,19)           -58.5087         estimate D2E/DX2                !
 ! D31   D(16,4,5,6)           -58.5075         estimate D2E/DX2                !
 ! D32   D(16,4,5,18)          180.0            estimate D2E/DX2                !
 ! D33   D(16,4,5,19)           62.9838         estimate D2E/DX2                !
 ! D34   D(17,4,5,6)            58.5087         estimate D2E/DX2                !
 ! D35   D(17,4,5,18)          -62.9838         estimate D2E/DX2                !
 ! D36   D(17,4,5,19)         -180.0            estimate D2E/DX2                !
 ! D37   D(4,5,6,7)            179.9999         estimate D2E/DX2                !
 ! D38   D(4,5,6,20)            58.6525         estimate D2E/DX2                !
 ! D39   D(4,5,6,21)           -58.6534         estimate D2E/DX2                !
 ! D40   D(18,5,6,7)           -58.5018         estimate D2E/DX2                !
 ! D41   D(18,5,6,20)         -179.8493         estimate D2E/DX2                !
 ! D42   D(18,5,6,21)           62.8448         estimate D2E/DX2                !
 ! D43   D(19,5,6,7)            58.5028         estimate D2E/DX2                !
 ! D44   D(19,5,6,20)          -62.8446         estimate D2E/DX2                !
 ! D45   D(19,5,6,21)          179.8495         estimate D2E/DX2                !
 ! D46   D(5,6,7,8)            179.9997         estimate D2E/DX2                !
 ! D47   D(5,6,7,22)            60.7773         estimate D2E/DX2                !
 ! D48   D(5,6,7,23)           -60.7784         estimate D2E/DX2                !
 ! D49   D(20,6,7,8)           -58.7068         estimate D2E/DX2                !
 ! D50   D(20,6,7,22)         -177.9291         estimate D2E/DX2                !
 ! D51   D(20,6,7,23)           60.5152         estimate D2E/DX2                !
 ! D52   D(21,6,7,8)            58.707          estimate D2E/DX2                !
 ! D53   D(21,6,7,22)          -60.5154         estimate D2E/DX2                !
 ! D54   D(21,6,7,23)          177.9289         estimate D2E/DX2                !
 ! D55   D(6,7,8,24)           179.9999         estimate D2E/DX2                !
 ! D56   D(6,7,8,25)            59.9556         estimate D2E/DX2                !
 ! D57   D(6,7,8,26)           -59.9554         estimate D2E/DX2                !
 ! D58   D(22,7,8,24)          -59.4825         estimate D2E/DX2                !
 ! D59   D(22,7,8,25)         -179.5268         estimate D2E/DX2                !
 ! D60   D(22,7,8,26)           60.5623         estimate D2E/DX2                !
 ! D61   D(23,7,8,24)           59.4828         estimate D2E/DX2                !
 ! D62   D(23,7,8,25)          -60.5615         estimate D2E/DX2                !
 ! D63   D(23,7,8,26)          179.5276         estimate D2E/DX2                !
 --------------------------------------------------------------------------------
 Trust Radius=3.00D-01 FncErr=1.00D-07 GrdErr=1.00D-06
 Number of steps in this run=    146 maximum allowed number of steps=    156.
 GradGradGradGradGradGradGradGradGradGradGradGradGradGradGradGradGradGrad

                          Input orientation:                          
 ---------------------------------------------------------------------
 Center     Atomic      Atomic             Coordinates (Angstroms)
 Number     Number       Type             X           Y           Z
 ---------------------------------------------------------------------
      1          7           0       -2.171655   -3.828527    0.000101
      2          6           0       -0.850859   -3.107596   -0.000128
      3          6           0       -1.149381   -1.600390    0.000103
      4          6           0        0.139883   -0.757073   -0.000115
      5          6           0       -0.139884    0.757073    0.000114
      6          6           0        1.149380    1.600389   -0.000103
      7          6           0        0.850858    3.107596    0.000128
      8          7           0        2.171655    3.828526   -0.000101
      9          1           0       -2.005336   -4.860164   -0.000047
     10          1           0       -2.713037   -3.562124    0.853303
     11          1           0       -2.713430   -3.561936   -0.852792
     12          1           0       -0.275468   -3.402382   -0.907240
     13          1           0       -0.275055   -3.402570    0.906659
     14          1           0       -1.757649   -1.343529    0.900100
     15          1           0       -1.758062   -1.343343   -0.899560
     16          1           0        0.747765   -1.017369   -0.899153
     17          1           0        0.748175   -1.017554    0.898590
     18          1           0       -0.747766    1.017369    0.899152
     19          1           0       -0.748176    1.017553   -0.898591
     20          1           0        1.757649    1.343528   -0.900100
     21          1           0        1.758062    1.343342    0.899559
     22          1           0        0.275467    3.402381    0.907240
     23          1           0        0.275054    3.402569   -0.906659
     24          1           0        2.005335    4.860164    0.000046
     25          1           0        2.713036    3.562124   -0.853304
     26          1           0        2.713430    3.561936    0.852792
 ---------------------------------------------------------------------
                    Distance matrix (angstroms):
                    1          2          3          4          5
     1  N    0.000000
     2  C    1.504740   0.000000
     3  C    2.451456   1.536485   0.000000
     4  C    3.844091   2.550790   1.540580   0.000000
     5  C    5.015558   3.929523   2.564511   1.539775   0.000000
     6  C    6.364150   5.115279   3.940722   2.564510   1.540579
     7  C    7.566068   6.443947   5.115280   3.929523   2.550790
     8  N    8.803113   7.566068   6.364150   5.015557   3.844091
     9  H    1.044958   2.098645   3.370280   4.630045   5.918890
    10  H    1.044997   2.098249   2.649787   4.090939   5.099462
    11  H    1.044996   2.098245   2.649781   4.090930   5.099454
    12  H    2.144853   1.113924   2.198675   2.827199   4.259430
    13  H    2.144849   1.113922   2.198668   2.827201   4.259428
    14  H    2.675185   2.178213   1.116227   2.180584   2.799941
    15  H    2.675180   2.178207   1.116225   2.180575   2.799939
    16  H    4.151419   2.780808   2.178930   1.116039   2.178359
    17  H    4.151416   2.780806   2.178921   1.116038   2.178350
    18  H    5.130152   4.223111   2.796828   2.178359   1.116039
    19  H    5.130149   4.223107   2.796827   2.178349   1.116037
    20  H    6.557434   5.237057   4.234128   2.799940   2.180584
    21  H    6.557433   5.237056   4.234124   2.799939   2.180576
    22  H    7.687479   6.668713   5.280228   4.259429   2.827198
    23  H    7.687480   6.668713   5.280230   4.259427   2.827200
    24  H    9.640570   8.464221   7.189645   5.918890   4.630045
    25  H    8.900013   7.610153   6.503700   5.099462   4.090939
    26  H    8.900005   7.610144   6.503691   5.099454   4.090931
                    6          7          8          9         10
     6  C    0.000000
     7  C    1.536486   0.000000
     8  N    2.451457   1.504741   0.000000
     9  H    7.189644   8.464221   9.640570   0.000000
    10  H    6.503700   7.610152   8.900012   1.707031   0.000000
    11  H    6.503690   7.610143   8.900004   1.707035   1.706095
    12  H    5.280228   6.668714   7.687480   2.437329   3.011108
    13  H    5.280230   6.668714   7.687480   2.437328   2.443780
    14  H    4.234128   5.237058   6.557434   3.638452   2.416013
    15  H    4.234123   5.237056   6.557433   3.638447   2.984543
    16  H    2.796827   4.223111   5.130152   4.811967   4.639400
    17  H    2.796827   4.223108   5.130149   4.811967   4.296147
    18  H    2.178930   2.780808   4.151419   6.077453   4.983588
    19  H    2.178921   2.780807   4.151417   6.077449   5.282353
    20  H    1.116227   2.178214   2.675185   7.311357   6.864902
    21  H    1.116225   2.178207   2.675180   7.311357   6.637504
    22  H    2.198675   1.113923   2.144853   8.619448   7.578812
    23  H    2.198668   1.113922   2.144850   8.619448   7.780302
    24  H    3.370281   2.098645   1.044959  10.515239   9.691544
    25  H    2.649788   2.098249   1.044997   9.691544   9.116451
    26  H    2.649783   2.098246   1.044996   9.691535   8.955377
                   11         12         13         14         15
    11  H    0.000000
    12  H    2.443784   0.000000
    13  H    3.011102   1.813899   0.000000
    14  H    2.984540   3.114838   2.537278   0.000000
    15  H    2.416003   2.537279   3.114828   1.799660   0.000000
    16  H    4.296143   2.595257   3.161693   3.101740   2.526940
    17  H    4.639389   3.161688   2.595258   2.526938   3.101726
    18  H    5.282346   4.797949   4.445152   2.567821   3.135127
    19  H    4.983577   4.445149   4.797943   3.135129   2.567820
    20  H    6.637497   5.163069   5.470074   4.776852   4.424873
    21  H    6.864891   5.470070   5.163070   4.424873   4.776843
    22  H    7.780291   7.064040   6.827183   5.163068   5.470070
    23  H    7.578804   6.827183   7.064040   5.470074   5.163070
    24  H    9.691535   8.619449   8.619449   7.311358   7.311357
    25  H    8.955376   7.578813   7.780303   6.864902   6.637504
    26  H    9.116435   7.780292   7.578805   6.637497   6.864892
                   16         17         18         19         20
    16  H    0.000000
    17  H    1.797743   0.000000
    18  H    3.100108   2.525619   0.000000
    19  H    2.525618   3.100095   1.797743   0.000000
    20  H    2.567820   3.135129   3.101740   2.526939   0.000000
    21  H    3.135127   2.567821   2.526941   3.101727   1.799659
    22  H    4.797949   4.445149   2.595256   3.161689   3.114838
    23  H    4.445151   4.797943   3.161692   2.595258   2.537278
    24  H    6.077453   6.077450   4.811967   4.811967   3.638453
    25  H    4.983588   5.282354   4.639400   4.296147   2.416014
    26  H    5.282346   4.983578   4.296143   4.639390   2.984540
                   21         22         23         24         25
    21  H    0.000000
    22  H    2.537280   0.000000
    23  H    3.114828   1.813899   0.000000
    24  H    3.638448   2.437330   2.437328   0.000000
    25  H    2.984543   3.011109   2.443780   1.707031   0.000000
    26  H    2.416004   2.443785   3.011103   1.707036   1.706096
                   26
    26  H    0.000000
 Stoichiometry    C6H18N2(2+)
 Framework group  CI[X(C6H18N2)]
 Deg. of freedom    36
 Full point group                 CI      NOp   2
 Largest Abelian subgroup         CI      NOp   2
 Largest concise Abelian subgroup CI      NOp   2
                         Standard orientation:                         
 ---------------------------------------------------------------------
 Center     Atomic      Atomic             Coordinates (Angstroms)
 Number     Number       Type             X           Y           Z
 ---------------------------------------------------------------------
      1          7           0       -2.171655   -3.828527    0.000101
      2          6           0       -0.850859   -3.107596   -0.000128
      3          6           0       -1.149381   -1.600390    0.000103
      4          6           0        0.139883   -0.757073   -0.000115
      5          6           0       -0.139883    0.757073    0.000115
      6          6           0        1.149381    1.600390   -0.000103
      7          6           0        0.850859    3.107596    0.000128
      8          7           0        2.171655    3.828527   -0.000101
      9          1           0       -2.005336   -4.860164   -0.000047
     10          1           0       -2.713037   -3.562124    0.853303
     11          1           0       -2.713430   -3.561936   -0.852792
     12          1           0       -0.275468   -3.402382   -0.907240
     13          1           0       -0.275055   -3.402570    0.906659
     14          1           0       -1.757649   -1.343529    0.900100
     15          1           0       -1.758062   -1.343343   -0.899560
     16          1           0        0.747765   -1.017369   -0.899153
     17          1           0        0.748175   -1.017554    0.898590
     18          1           0       -0.747765    1.017369    0.899153
     19          1           0       -0.748175    1.017554   -0.898590
     20          1           0        1.757649    1.343529   -0.900100
     21          1           0        1.758062    1.343343    0.899560
     22          1           0        0.275468    3.402382    0.907240
     23          1           0        0.275055    3.402570   -0.906659
     24          1           0        2.005336    4.860164    0.000047
     25          1           0        2.713037    3.562124   -0.853303
     26          1           0        2.713430    3.561936    0.852792
 ---------------------------------------------------------------------
 Rotational constants (GHZ):     10.1777557      0.4659170      0.4557845
 Standard basis: 6-311++G(d,p) (5D, 7F)
 There are   155 symmetry adapted cartesian basis functions of AG  symmetry.
 There are   155 symmetry adapted cartesian basis functions of AU  symmetry.
 There are   151 symmetry adapted basis functions of AG  symmetry.
 There are   151 symmetry adapted basis functions of AU  symmetry.
   302 basis functions,   450 primitive gaussians,   310 cartesian basis functions
    33 alpha electrons       33 beta electrons
       nuclear repulsion energy       395.7490091214 Hartrees.
 NAtoms=   26 NActive=   26 NUniq=   13 SFac= 4.00D+00 NAtFMM=   60 NAOKFM=F Big=F
 Integral buffers will be    131072 words long.
 Raffenetti 2 integral format.
 Two-electron integral symmetry is turned on.
 One-electron integrals computed using PRISM.
 NBasis=   302 RedAO= T EigKep=  3.63D-06  NBF=   151   151
 NBsUse=   302 1.00D-06 EigRej= -1.00D+00 NBFU=   151   151
 ExpMin= 3.60D-02 ExpMax= 6.29D+03 ExpMxC= 9.49D+02 IAcc=3 IRadAn=         5 AccDes= 0.00D+00
 Harris functional with IExCor=  402 and IRadAn=       5 diagonalized for initial guess.
 HarFok:  IExCor=  402 AccDes= 0.00D+00 IRadAn=         5 IDoV= 1 UseB2=F ITyADJ=14
 ICtDFT=  3500011 ScaDFX=  1.000000  1.000000  1.000000  1.000000
 FoFCou: FMM=F IPFlag=           0 FMFlag=      100000 FMFlg1=           0
         NFxFlg=           0 DoJE=T BraDBF=F KetDBF=T FulRan=T
         wScrn=  0.000000 ICntrl=     500 IOpCl=  0 I1Cent=   200000004 NGrid=           0
         NMat0=    1 NMatS0=      1 NMatT0=    0 NMatD0=    1 NMtDS0=    0 NMtDT0=    0
 Petite list used in FoFCou.
 Initial guess orbital symmetries:
       Occupied  (AG) (AU) (AG) (AU) (AU) (AG) (AG) (AU) (AG) (AU)
                 (AG) (AU) (AG) (AU) (AG) (AU) (AU) (AG) (AU) (AG)
                 (AU) (AG) (AU) (AG) (AU) (AG) (AU) (AU) (AG) (AG)
                 (AG) (AU) (AG)
       Virtual   (AG) (AU) (AG) (AU) (AU) (AU) (AG) (AG) (AU) (AG)
                 (AU) (AG) (AG) (AU) (AU) (AU) (AG) (AG) (AU) (AG)
                 (AG) (AU) (AG) (AU) (AG) (AU) (AU) (AG) (AU) (AU)
                 (AU) (AG) (AG) (AU) (AG) (AG) (AG) (AU) (AU) (AG)
                 (AU) (AU) (AU) (AG) (AG) (AU) (AG) (AU) (AG) (AU)
                 (AG) (AU) (AU) (AG) (AG) (AU) (AU) (AG) (AG) (AG)
                 (AU) (AG) (AU) (AU) (AU) (AG) (AG) (AU) (AG) (AU)
                 (AG) (AG) (AU) (AG) (AU) (AG) (AU) (AG) (AU) (AU)
                 (AU) (AG) (AU) (AG) (AG) (AU) (AG) (AG) (AU) (AG)
                 (AU) (AG) (AU) (AU) (AG) (AG) (AU) (AU) (AG) (AU)
                 (AG) (AG) (AU) (AU) (AG) (AU) (AG) (AU) (AG) (AG)
                 (AU) (AU) (AG) (AU) (AG) (AU) (AG) (AG) (AU) (AU)
                 (AU) (AG) (AG) (AU) (AG) (AU) (AG) (AU) (AG) (AU)
                 (AG) (AU) (AU) (AG) (AG) (AU) (AG) (AU) (AG) (AG)
                 (AG) (AU) (AU) (AG) (AU) (AG) (AU) (AG) (AG) (AG)
                 (AU) (AU) (AU) (AU) (AU) (AG) (AG) (AU) (AG) (AU)
                 (AG) (AU) (AG) (AU) (AG) (AG) (AU) (AU) (AG) (AU)
                 (AG) (AG) (AU) (AU) (AU) (AG) (AG) (AG) (AU) (AU)
                 (AU) (AG) (AG) (AG) (AU) (AU) (AG) (AU) (AU) (AU)
                 (AG) (AG) (AG) (AG) (AU) (AU) (AG) (AU) (AG) (AU)
                 (AG) (AG) (AG) (AU) (AU) (AU) (AG) (AU) (AG) (AU)
                 (AG) (AG) (AG) (AG) (AU) (AU) (AU) (AG) (AU) (AU)
                 (AU) (AG) (AU) (AG) (AG) (AU) (AG) (AU) (AG) (AU)
                 (AU) (AG) (AG) (AU) (AG) (AG) (AG) (AU) (AU) (AG)
                 (AU) (AG) (AG) (AU) (AU) (AG) (AG) (AU) (AU) (AG)
                 (AU) (AG) (AU) (AG) (AU) (AU) (AG) (AG) (AU) (AU)
                 (AG) (AG) (AG) (AU) (AU) (AG) (AU) (AU) (AG)
 The electronic state of the initial guess is 1-AG.
 Keep R1 ints in memory in symmetry-blocked form, NReq=1570463978.
 Requested convergence on RMS density matrix=1.00D-08 within 128 cycles.
 Requested convergence on MAX density matrix=1.00D-06.
 Requested convergence on             energy=1.00D-06.
 No special actions if energy rises.
 SCF Done:  E(RB3LYP) =  -348.530327050     A.U. after   11 cycles
            NFock= 11  Conv=0.65D-08     -V/T= 2.0062

 **********************************************************************

            Population analysis using the SCF density.

 **********************************************************************

 Orbital symmetries:
       Occupied  (AG) (AU) (AG) (AU) (AU) (AG) (AG) (AU) (AG) (AU)
                 (AG) (AU) (AG) (AU) (AG) (AU) (AU) (AG) (AG) (AU)
                 (AG) (AU) (AU) (AG) (AU) (AU) (AG) (AG) (AU) (AU)
                 (AG) (AG) (AG)
       Virtual   (AG) (AU) (AG) (AU) (AU) (AG) (AG) (AU) (AU) (AG)
                 (AU) (AG) (AG) (AU) (AU) (AG) (AU) (AG) (AG) (AG)
                 (AU) (AU) (AU) (AG) (AG) (AG) (AU) (AU) (AG) (AU)
                 (AU) (AU) (AG) (AU) (AG) (AG) (AU) (AG) (AG) (AU)
                 (AG) (AU) (AG) (AU) (AU) (AG) (AU) (AU) (AU) (AG)
                 (AG) (AU) (AU) (AG) (AG) (AG) (AG) (AU) (AU) (AU)
                 (AG) (AG) (AU) (AU) (AG) (AU) (AG) (AU) (AU) (AG)
                 (AG) (AG) (AU) (AG) (AU) (AG) (AG) (AU) (AU) (AG)
                 (AU) (AU) (AU) (AG) (AU) (AG) (AG) (AG) (AU) (AG)
                 (AU) (AG) (AU) (AG) (AU) (AU) (AU) (AU) (AG) (AG)
                 (AU) (AG) (AG) (AU) (AG) (AU) (AG) (AG) (AG) (AU)
                 (AU) (AG) (AU) (AU) (AG) (AG) (AU) (AG) (AU) (AU)
                 (AU) (AG) (AG) (AU) (AG) (AU) (AG) (AU) (AU) (AG)
                 (AG) (AU) (AG) (AU) (AU) (AG) (AG) (AU) (AU) (AG)
                 (AG) (AG) (AU) (AG) (AU) (AG) (AG) (AU) (AG) (AU)
                 (AU) (AG) (AU) (AU) (AU) (AG) (AG) (AU) (AU) (AG)
                 (AG) (AG) (AG) (AU) (AU) (AG) (AU) (AU) (AU) (AG)
                 (AG) (AG) (AU) (AU) (AU) (AG) (AG) (AG) (AU) (AU)
                 (AU) (AG) (AG) (AU) (AG) (AG) (AU) (AU) (AU) (AU)
                 (AG) (AG) (AU) (AG) (AG) (AU) (AG) (AU) (AG) (AU)
                 (AG) (AG) (AU) (AG) (AU) (AG) (AU) (AU) (AG) (AU)
                 (AG) (AG) (AU) (AG) (AG) (AU) (AU) (AU) (AG) (AG)
                 (AU) (AU) (AU) (AG) (AG) (AU) (AU) (AG) (AU) (AU)
                 (AG) (AG) (AG) (AU) (AU) (AG) (AG) (AG) (AU) (AG)
                 (AU) (AG) (AU) (AG) (AU) (AG) (AG) (AU) (AU) (AG)
                 (AU) (AG) (AU) (AG) (AU) (AU) (AG) (AG) (AU) (AU)
                 (AG) (AU) (AG) (AG) (AU) (AG) (AU) (AU) (AG)
 The electronic state is 1-AG.
 Alpha  occ. eigenvalues --  -14.71978 -14.71978 -10.50381 -10.50381 -10.44480
 Alpha  occ. eigenvalues --  -10.44480 -10.42674 -10.42653  -1.27794  -1.27792
 Alpha  occ. eigenvalues --   -1.07276  -1.04646  -0.98833  -0.92955  -0.88927
 Alpha  occ. eigenvalues --   -0.86647  -0.86511  -0.86502  -0.83373  -0.82436
 Alpha  occ. eigenvalues --   -0.77224  -0.76004  -0.74310  -0.72191  -0.67822
 Alpha  occ. eigenvalues --   -0.67738  -0.67187  -0.63974  -0.63169  -0.60631
 Alpha  occ. eigenvalues --   -0.59960  -0.59178  -0.58121
 Alpha virt. eigenvalues --   -0.27330  -0.27294  -0.22584  -0.22396  -0.21920
 Alpha virt. eigenvalues --   -0.21790  -0.21345  -0.21297  -0.18721  -0.18117
 Alpha virt. eigenvalues --   -0.17937  -0.17452  -0.16641  -0.16620  -0.15832
 Alpha virt. eigenvalues --   -0.15335  -0.15002  -0.14180  -0.13182  -0.13159
 Alpha virt. eigenvalues --   -0.13116  -0.12313  -0.11955  -0.11897  -0.10281
 Alpha virt. eigenvalues --   -0.09695  -0.09290  -0.09264  -0.08941  -0.07983
 Alpha virt. eigenvalues --   -0.07657  -0.07565  -0.07301  -0.07288  -0.06780
 Alpha virt. eigenvalues --   -0.06550  -0.06190  -0.05675  -0.05464  -0.05409
 Alpha virt. eigenvalues --   -0.05013  -0.04310  -0.04257  -0.04043  -0.04009
 Alpha virt. eigenvalues --   -0.03250  -0.03187  -0.02913  -0.02695  -0.02049
 Alpha virt. eigenvalues --   -0.01541  -0.01443  -0.00529   0.00274   0.00658
 Alpha virt. eigenvalues --    0.00705   0.00950   0.01232   0.01572   0.04163
 Alpha virt. eigenvalues --    0.04826   0.06119   0.06284   0.06501   0.06501
 Alpha virt. eigenvalues --    0.06998   0.08990   0.09731   0.10262   0.10724
 Alpha virt. eigenvalues --    0.11272   0.12345   0.13288   0.13545   0.15593
 Alpha virt. eigenvalues --    0.18333   0.18780   0.20107   0.20624   0.22758
 Alpha virt. eigenvalues --    0.23254   0.24110   0.26698   0.26765   0.29254
 Alpha virt. eigenvalues --    0.29460   0.30229   0.32696   0.35364   0.36100
 Alpha virt. eigenvalues --    0.36121   0.36867   0.38297   0.39230   0.39649
 Alpha virt. eigenvalues --    0.40941   0.41397   0.42559   0.42690   0.43523
 Alpha virt. eigenvalues --    0.43725   0.44740   0.45300   0.45345   0.45770
 Alpha virt. eigenvalues --    0.48816   0.49695   0.49784   0.51540   0.51681
 Alpha virt. eigenvalues --    0.52057   0.52136   0.52515   0.55456   0.58042
 Alpha virt. eigenvalues --    0.58481   0.60087   0.63491   0.66549   0.69656
 Alpha virt. eigenvalues --    0.71847   0.72949   0.76183   0.77292   0.78566
 Alpha virt. eigenvalues --    0.85402   0.86541   0.92701   0.94521   0.96074
 Alpha virt. eigenvalues --    0.97064   0.97681   0.98770   0.99388   1.00790
 Alpha virt. eigenvalues --    1.00845   1.04725   1.11863   1.13155   1.13203
 Alpha virt. eigenvalues --    1.19117   1.22138   1.23778   1.24702   1.25872
 Alpha virt. eigenvalues --    1.29085   1.31252   1.31821   1.33340   1.33543
 Alpha virt. eigenvalues --    1.34144   1.34938   1.36766   1.38024   1.39448
 Alpha virt. eigenvalues --    1.39463   1.41139   1.42217   1.43473   1.43736
 Alpha virt. eigenvalues --    1.44924   1.45098   1.45707   1.46241   1.46598
 Alpha virt. eigenvalues --    1.47889   1.48266   1.53478   1.55531   1.55704
 Alpha virt. eigenvalues --    1.57431   1.59433   1.61545   1.62097   1.64333
 Alpha virt. eigenvalues --    1.67824   1.69326   1.70699   1.78780   1.79609
 Alpha virt. eigenvalues --    1.82668   1.84509   1.85166   1.87971   1.89394
 Alpha virt. eigenvalues --    1.91177   1.91659   1.95624   1.98517   1.98863
 Alpha virt. eigenvalues --    1.99963   2.03227   2.04073   2.05680   2.06584
 Alpha virt. eigenvalues --    2.10632   2.11153   2.14579   2.18211   2.18959
 Alpha virt. eigenvalues --    2.21880   2.23463   2.26403   2.26425   2.26569
 Alpha virt. eigenvalues --    2.26839   2.28382   2.32383   2.34534   2.35034
 Alpha virt. eigenvalues --    2.36649   2.38216   2.39924   2.42381   2.43262
 Alpha virt. eigenvalues --    2.44576   2.45820   2.46076   2.47225   2.47762
 Alpha virt. eigenvalues --    2.48182   2.51470   2.52395   2.53138   2.53917
 Alpha virt. eigenvalues --    2.58998   2.63405   2.64620   2.66617   2.67940
 Alpha virt. eigenvalues --    2.68160   2.70408   2.70538   2.70683   2.75393
 Alpha virt. eigenvalues --    2.75774   2.77455   2.78566   2.79367   2.91325
 Alpha virt. eigenvalues --    3.07988   3.18054   3.22083   3.22563   3.46066
 Alpha virt. eigenvalues --    3.47066   3.48838   3.52441   3.53602   3.60771
 Alpha virt. eigenvalues --    3.75543   3.79696   3.86969   3.96693   4.06093
 Alpha virt. eigenvalues --    4.30025   4.30355   4.31161   4.31541   4.40971
 Alpha virt. eigenvalues --    4.41054  23.51950  23.51998  23.57737  23.58972
 Alpha virt. eigenvalues --   23.60863  23.61035  35.19542  35.19952
          Condensed to atoms (all electrons):
               1          2          3          4          5          6
     1  N    6.223336  -0.072716   0.025942  -0.016411   0.006766   0.007624
     2  C   -0.072716   6.784249  -0.416992   0.153072  -0.196094  -0.137879
     3  C    0.025942  -0.416992   6.552646  -0.521768   0.060589  -0.093648
     4  C   -0.016411   0.153072  -0.521768   6.429590  -0.447299   0.060589
     5  C    0.006766  -0.196094   0.060589  -0.447299   6.429590  -0.521768
     6  C    0.007624  -0.137879  -0.093648   0.060589  -0.521768   6.552646
     7  C   -0.000436  -0.021771  -0.137879  -0.196094   0.153072  -0.416992
     8  N    0.000022  -0.000436   0.007624   0.006766  -0.016411   0.025942
     9  H    0.325096  -0.016186   0.014432  -0.000537  -0.001799  -0.000180
    10  H    0.346242  -0.022363   0.013076   0.003255  -0.000451  -0.000057
    11  H    0.346242  -0.022363   0.013076   0.003255  -0.000451  -0.000057
    12  H   -0.003596   0.373113  -0.033323  -0.015451  -0.005191   0.002778
    13  H   -0.003596   0.373111  -0.033324  -0.015450  -0.005192   0.002777
    14  H   -0.000830  -0.070353   0.463723  -0.074950   0.006552   0.008392
    15  H   -0.000831  -0.070356   0.463725  -0.074949   0.006551   0.008392
    16  H   -0.000134   0.006921  -0.068547   0.483395  -0.075906   0.004135
    17  H   -0.000134   0.006923  -0.068551   0.483401  -0.075911   0.004134
    18  H    0.000481  -0.003854   0.004135  -0.075906   0.483395  -0.068547
    19  H    0.000481  -0.003854   0.004134  -0.075911   0.483401  -0.068551
    20  H    0.000214  -0.002772   0.008392   0.006552  -0.074950   0.463723
    21  H    0.000214  -0.002772   0.008392   0.006551  -0.074949   0.463725
    22  H    0.000000   0.000579   0.002778  -0.005191  -0.015451  -0.033323
    23  H    0.000000   0.000579   0.002777  -0.005192  -0.015450  -0.033324
    24  H    0.000001  -0.000092  -0.000180  -0.001799  -0.000537   0.014432
    25  H    0.000001   0.000010  -0.000057  -0.000451   0.003255   0.013076
    26  H    0.000001   0.000010  -0.000057  -0.000451   0.003255   0.013076
               7          8          9         10         11         12
     1  N   -0.000436   0.000022   0.325096   0.346242   0.346242  -0.003596
     2  C   -0.021771  -0.000436  -0.016186  -0.022363  -0.022363   0.373113
     3  C   -0.137879   0.007624   0.014432   0.013076   0.013076  -0.033323
     4  C   -0.196094   0.006766  -0.000537   0.003255   0.003255  -0.015451
     5  C    0.153072  -0.016411  -0.001799  -0.000451  -0.000451  -0.005191
     6  C   -0.416992   0.025942  -0.000180  -0.000057  -0.000057   0.002778
     7  C    6.784249  -0.072716  -0.000092   0.000010   0.000010   0.000579
     8  N   -0.072716   6.223336   0.000001   0.000001   0.000001   0.000000
     9  H   -0.000092   0.000001   0.332630  -0.011329  -0.011329   0.000211
    10  H    0.000010   0.000001  -0.011329   0.357215  -0.026173   0.005537
    11  H    0.000010   0.000001  -0.011329  -0.026173   0.357215  -0.011633
    12  H    0.000579   0.000000   0.000211   0.005537  -0.011633   0.467652
    13  H    0.000579   0.000000   0.000211  -0.011633   0.005537  -0.036404
    14  H   -0.002772   0.000214   0.000265   0.005582  -0.001240   0.020172
    15  H   -0.002772   0.000214   0.000265  -0.001240   0.005583  -0.025665
    16  H   -0.003854   0.000481   0.000257  -0.001049   0.001238   0.008287
    17  H   -0.003854   0.000481   0.000257   0.001239  -0.001049  -0.003905
    18  H    0.006921  -0.000134  -0.000019  -0.000185   0.000164  -0.000105
    19  H    0.006923  -0.000134  -0.000019   0.000164  -0.000185   0.000810
    20  H   -0.070353  -0.000830   0.000003   0.000016   0.000025  -0.000098
    21  H   -0.070356  -0.000831   0.000003   0.000025   0.000016   0.000376
    22  H    0.373113  -0.003596   0.000001  -0.000004   0.000003  -0.000062
    23  H    0.373111  -0.003596   0.000001   0.000003  -0.000004   0.000031
    24  H   -0.016186   0.325096   0.000000   0.000001   0.000001   0.000001
    25  H   -0.022363   0.346242   0.000001  -0.000001  -0.000001  -0.000004
    26  H   -0.022363   0.346242   0.000001  -0.000001  -0.000001   0.000003
              13         14         15         16         17         18
     1  N   -0.003596  -0.000830  -0.000831  -0.000134  -0.000134   0.000481
     2  C    0.373111  -0.070353  -0.070356   0.006921   0.006923  -0.003854
     3  C   -0.033324   0.463723   0.463725  -0.068547  -0.068551   0.004135
     4  C   -0.015450  -0.074950  -0.074949   0.483395   0.483401  -0.075906
     5  C   -0.005192   0.006552   0.006551  -0.075906  -0.075911   0.483395
     6  C    0.002777   0.008392   0.008392   0.004135   0.004134  -0.068547
     7  C    0.000579  -0.002772  -0.002772  -0.003854  -0.003854   0.006921
     8  N    0.000000   0.000214   0.000214   0.000481   0.000481  -0.000134
     9  H    0.000211   0.000265   0.000265   0.000257   0.000257  -0.000019
    10  H   -0.011633   0.005582  -0.001240  -0.001049   0.001239  -0.000185
    11  H    0.005537  -0.001240   0.005583   0.001238  -0.001049   0.000164
    12  H   -0.036404   0.020172  -0.025665   0.008287  -0.003905  -0.000105
    13  H    0.467653  -0.025665   0.020172  -0.003906   0.008287   0.000810
    14  H   -0.025665   0.605817  -0.098463   0.015574  -0.025131   0.003648
    15  H    0.020172  -0.098463   0.605819  -0.025131   0.015574   0.002300
    16  H   -0.003906   0.015574  -0.025131   0.575061  -0.072798   0.011336
    17  H    0.008287  -0.025131   0.015574  -0.072798   0.575061  -0.015803
    18  H    0.000810   0.003648   0.002300   0.011336  -0.015803   0.575061
    19  H   -0.000105   0.002300   0.003648  -0.015803   0.011336  -0.072798
    20  H    0.000376   0.000229   0.001669   0.003648   0.002300   0.015574
    21  H   -0.000098   0.001669   0.000230   0.002300   0.003648  -0.025131
    22  H    0.000031  -0.000098   0.000376  -0.000105   0.000810   0.008287
    23  H   -0.000062   0.000376  -0.000098   0.000810  -0.000105  -0.003906
    24  H    0.000001   0.000003   0.000003  -0.000019  -0.000019   0.000257
    25  H    0.000003   0.000016   0.000025  -0.000185   0.000164  -0.001049
    26  H   -0.000004   0.000025   0.000016   0.000164  -0.000185   0.001238
              19         20         21         22         23         24
     1  N    0.000481   0.000214   0.000214   0.000000   0.000000   0.000001
     2  C   -0.003854  -0.002772  -0.002772   0.000579   0.000579  -0.000092
     3  C    0.004134   0.008392   0.008392   0.002778   0.002777  -0.000180
     4  C   -0.075911   0.006552   0.006551  -0.005191  -0.005192  -0.001799
     5  C    0.483401  -0.074950  -0.074949  -0.015451  -0.015450  -0.000537
     6  C   -0.068551   0.463723   0.463725  -0.033323  -0.033324   0.014432
     7  C    0.006923  -0.070353  -0.070356   0.373113   0.373111  -0.016186
     8  N   -0.000134  -0.000830  -0.000831  -0.003596  -0.003596   0.325096
     9  H   -0.000019   0.000003   0.000003   0.000001   0.000001   0.000000
    10  H    0.000164   0.000016   0.000025  -0.000004   0.000003   0.000001
    11  H   -0.000185   0.000025   0.000016   0.000003  -0.000004   0.000001
    12  H    0.000810  -0.000098   0.000376  -0.000062   0.000031   0.000001
    13  H   -0.000105   0.000376  -0.000098   0.000031  -0.000062   0.000001
    14  H    0.002300   0.000229   0.001669  -0.000098   0.000376   0.000003
    15  H    0.003648   0.001669   0.000230   0.000376  -0.000098   0.000003
    16  H   -0.015803   0.003648   0.002300  -0.000105   0.000810  -0.000019
    17  H    0.011336   0.002300   0.003648   0.000810  -0.000105  -0.000019
    18  H   -0.072798   0.015574  -0.025131   0.008287  -0.003906   0.000257
    19  H    0.575061  -0.025131   0.015574  -0.003905   0.008287   0.000257
    20  H   -0.025131   0.605817  -0.098463   0.020172  -0.025665   0.000265
    21  H    0.015574  -0.098463   0.605819  -0.025665   0.020172   0.000265
    22  H   -0.003905   0.020172  -0.025665   0.467652  -0.036404   0.000211
    23  H    0.008287  -0.025665   0.020172  -0.036404   0.467653   0.000211
    24  H    0.000257   0.000265   0.000265   0.000211   0.000211   0.332630
    25  H    0.001239   0.005582  -0.001240   0.005537  -0.011633  -0.011329
    26  H   -0.001049  -0.001240   0.005583  -0.011633   0.005537  -0.011329
              25         26
     1  N    0.000001   0.000001
     2  C    0.000010   0.000010
     3  C   -0.000057  -0.000057
     4  C   -0.000451  -0.000451
     5  C    0.003255   0.003255
     6  C    0.013076   0.013076
     7  C   -0.022363  -0.022363
     8  N    0.346242   0.346242
     9  H    0.000001   0.000001
    10  H   -0.000001  -0.000001
    11  H   -0.000001  -0.000001
    12  H   -0.000004   0.000003
    13  H    0.000003  -0.000004
    14  H    0.000016   0.000025
    15  H    0.000025   0.000016
    16  H   -0.000185   0.000164
    17  H    0.000164  -0.000185
    18  H   -0.001049   0.001238
    19  H    0.001239  -0.001049
    20  H    0.005582  -0.001240
    21  H   -0.001240   0.005583
    22  H    0.005537  -0.011633
    23  H   -0.011633   0.005537
    24  H   -0.011329  -0.011329
    25  H    0.357215  -0.026173
    26  H   -0.026173   0.357215
 Mulliken charges:
               1
     1  N   -0.183980
     2  C   -0.637714
     3  C   -0.271117
     4  C   -0.108615
     5  C   -0.108615
     6  C   -0.271117
     7  C   -0.637714
     8  N   -0.183980
     9  H    0.367857
    10  H    0.342122
    11  H    0.342121
    12  H    0.255890
    13  H    0.255890
    14  H    0.164944
    15  H    0.164943
    16  H    0.153830
    17  H    0.153830
    18  H    0.153830
    19  H    0.153830
    20  H    0.164944
    21  H    0.164943
    22  H    0.255890
    23  H    0.255890
    24  H    0.367857
    25  H    0.342122
    26  H    0.342121
 Sum of Mulliken charges =   2.00000
 Mulliken charges with hydrogens summed into heavy atoms:
               1
     1  N    0.868120
     2  C   -0.125934
     3  C    0.058770
     4  C    0.199044
     5  C    0.199044
     6  C    0.058770
     7  C   -0.125934
     8  N    0.868120
 Electronic spatial extent (au):  <R**2>=           2368.5086
 Charge=              2.0000 electrons
 Dipole moment (field-independent basis, Debye):
    X=              0.0000    Y=              0.0000    Z=              0.0000  Tot=              0.0000
 Quadrupole moment (field-independent basis, Debye-Ang):
   XX=             -6.3263   YY=             83.5328   ZZ=            -43.6801
   XY=             69.0551   XZ=             -0.0015   YZ=             -0.0027
 Traceless Quadrupole moment (field-independent basis, Debye-Ang):
   XX=            -17.5017   YY=             72.3573   ZZ=            -54.8556
   XY=             69.0551   XZ=             -0.0015   YZ=             -0.0027
 Octapole moment (field-independent basis, Debye-Ang**2):
  XXX=              0.0000  YYY=              0.0000  ZZZ=              0.0000  XYY=              0.0000
  XXY=              0.0000  XXZ=              0.0000  XZZ=              0.0000  YZZ=              0.0000
  YYZ=              0.0000  XYZ=              0.0000
 Hexadecapole moment (field-independent basis, Debye-Ang**3):
 XXXX=           -331.5823 YYYY=            189.2295 ZZZZ=            -91.8138 XXXY=            -56.0306
 XXXZ=              0.0154 YYYX=            655.0529 YYYZ=             -0.0364 ZZZX=             -0.0019
 ZZZY=             -0.0063 XXYY=            181.6305 XXZZ=            -79.6011 YYZZ=           -304.5775
 XXYZ=             -0.0132 YYXZ=             -0.0207 ZZXY=           -114.7332
 N-N= 3.957490091214D+02 E-N=-1.579169970561D+03  KE= 3.463970116596D+02
 Symmetry AG   KE= 1.748194831367D+02
 Symmetry AU   KE= 1.715775285229D+02

 **********************************************************************

            Electrostatic Properties Using The SCF Density

 **********************************************************************

       Atomic Center    1 is at  -2.171655 -3.828527  0.000101
       Atomic Center    2 is at  -0.850859 -3.107596 -0.000128
       Atomic Center    3 is at  -1.149381 -1.600390  0.000103
       Atomic Center    4 is at   0.139883 -0.757073 -0.000115
       Atomic Center    5 is at  -0.139883  0.757073  0.000115
       Atomic Center    6 is at   1.149381  1.600390 -0.000103
       Atomic Center    7 is at   0.850859  3.107596  0.000128
       Atomic Center    8 is at   2.171655  3.828527 -0.000101
       Atomic Center    9 is at  -2.005336 -4.860164 -0.000047
       Atomic Center   10 is at  -2.713037 -3.562124  0.853303
       Atomic Center   11 is at  -2.713430 -3.561936 -0.852792
       Atomic Center   12 is at  -0.275468 -3.402382 -0.907240
       Atomic Center   13 is at  -0.275055 -3.402570  0.906659
       Atomic Center   14 is at  -1.757649 -1.343529  0.900100
       Atomic Center   15 is at  -1.758062 -1.343343 -0.899560
       Atomic Center   16 is at   0.747765 -1.017369 -0.899153
       Atomic Center   17 is at   0.748175 -1.017554  0.898590
       Atomic Center   18 is at  -0.747765  1.017369  0.899153
       Atomic Center   19 is at  -0.748175  1.017554 -0.898590
       Atomic Center   20 is at   1.757649  1.343529 -0.900100
       Atomic Center   21 is at   1.758062  1.343343  0.899560
       Atomic Center   22 is at   0.275468  3.402382  0.907240
       Atomic Center   23 is at   0.275055  3.402570 -0.906659
       Atomic Center   24 is at   2.005336  4.860164  0.000047
       Atomic Center   25 is at   2.713037  3.562124 -0.853303
       Atomic Center   26 is at   2.713430  3.561936  0.852792
 -----------------------------------------------------------------

              Electrostatic Properties (Atomic Units)

 -----------------------------------------------------------------
    Center     Electric         -------- Electric Field --------
               Potential          X             Y             Z
 -----------------------------------------------------------------
    1 Atom    -17.990232      0.003640      0.000158     -0.000001
    2 Atom    -14.441925      0.013083      0.010552     -0.000002
    3 Atom    -14.500377      0.001618      0.003941      0.000000
    4 Atom    -14.518007      0.001788      0.001125      0.000000
    5 Atom    -14.518007     -0.001788     -0.001125      0.000000
    6 Atom    -14.500377     -0.001618     -0.003941      0.000000
    7 Atom    -14.441925     -0.013083     -0.010552      0.000002
    8 Atom    -17.990232     -0.003640     -0.000158      0.000001
    9 Atom     -0.678073     -0.006246     -0.006203      0.000000
   10 Atom     -0.675809     -0.006260     -0.002514      0.001795
   11 Atom     -0.675809     -0.006262     -0.002514     -0.001794
   12 Atom     -0.822285     -0.000167     -0.004402     -0.002586
   13 Atom     -0.822285     -0.000165     -0.004403      0.002586
   14 Atom     -0.855985     -0.003233      0.001887      0.003943
   15 Atom     -0.855986     -0.003236      0.001888     -0.003942
   16 Atom     -0.878100      0.003482     -0.001554     -0.003029
   17 Atom     -0.878101      0.003485     -0.001555      0.003027
   18 Atom     -0.878100     -0.003482      0.001554      0.003029
   19 Atom     -0.878101     -0.003485      0.001555     -0.003027
   20 Atom     -0.855985      0.003233     -0.001887     -0.003943
   21 Atom     -0.855986      0.003236     -0.001888      0.003942
   22 Atom     -0.822285      0.000167      0.004402      0.002586
   23 Atom     -0.822285      0.000165      0.004403     -0.002586
   24 Atom     -0.678073      0.006246      0.006203      0.000000
   25 Atom     -0.675809      0.006260      0.002514     -0.001795
   26 Atom     -0.675809      0.006262      0.002514      0.001794
 -----------------------------------------------------------------
 -----------------------------------------------------
    Center         ---- Electric Field Gradient ----
                     XX            YY            ZZ
 -----------------------------------------------------
    1 Atom     -812.336501   -812.302807   -812.340062
    2 Atom     -500.822878   -500.438301   -500.226096
    3 Atom     -500.291052   -500.413508   -500.248683
    4 Atom     -500.316866   -500.316229   -500.193483
    5 Atom     -500.316866   -500.316229   -500.193483
    6 Atom     -500.291052   -500.413508   -500.248683
    7 Atom     -500.822878   -500.438301   -500.226096
    8 Atom     -812.336501   -812.302807   -812.340062
    9 Atom       -1.524610     -1.948288     -1.514567
   10 Atom       -1.636994     -1.547415     -1.815608
   11 Atom       -1.637169     -1.547457     -1.815396
   12 Atom       -1.747969     -1.674637     -1.896570
   13 Atom       -1.748116     -1.674678     -1.896396
   14 Atom       -1.776432     -1.693532     -1.914417
   15 Atom       -1.776596     -1.693564     -1.914234
   16 Atom       -1.780291     -1.696498     -1.918603
   17 Atom       -1.780454     -1.696533     -1.918422
   18 Atom       -1.780291     -1.696498     -1.918603
   19 Atom       -1.780454     -1.696533     -1.918422
   20 Atom       -1.776432     -1.693532     -1.914417
   21 Atom       -1.776596     -1.693564     -1.914234
   22 Atom       -1.747969     -1.674637     -1.896570
   23 Atom       -1.748116     -1.674678     -1.896396
   24 Atom       -1.524610     -1.948288     -1.514567
   25 Atom       -1.636994     -1.547415     -1.815608
   26 Atom       -1.637169     -1.547457     -1.815396
 -----------------------------------------------------
 -----------------------------------------------------
    Center         ---- Electric Field Gradient ----
                     XY            XZ            YZ
 -----------------------------------------------------
    1 Atom        0.022175      0.000003      0.000001
    2 Atom       -0.314335      0.000105      0.000049
    3 Atom        0.041367      0.000016     -0.000027
    4 Atom       -0.043655      0.000026     -0.000004
    5 Atom       -0.043655      0.000026     -0.000004
    6 Atom        0.041367      0.000016     -0.000027
    7 Atom       -0.314335      0.000105      0.000049
    8 Atom        0.022175      0.000003      0.000001
    9 Atom        0.069082      0.000010     -0.000062
   10 Atom        0.058340      0.187814     -0.093609
   11 Atom        0.058425     -0.187884      0.093641
   12 Atom        0.040637      0.155863     -0.088684
   13 Atom        0.040710     -0.155924      0.088713
   14 Atom        0.040855      0.173593     -0.068198
   15 Atom        0.040923     -0.173649      0.068225
   16 Atom        0.043491      0.171549     -0.074464
   17 Atom        0.043561     -0.171605      0.074491
   18 Atom        0.043491      0.171549     -0.074464
   19 Atom        0.043561     -0.171605      0.074491
   20 Atom        0.040855      0.173593     -0.068198
   21 Atom        0.040923     -0.173649      0.068225
   22 Atom        0.040637      0.155863     -0.088684
   23 Atom        0.040710     -0.155924      0.088713
   24 Atom        0.069082      0.000010     -0.000062
   25 Atom        0.058340      0.187814     -0.093609
   26 Atom        0.058425     -0.187884      0.093641
 -----------------------------------------------------
 -----------------------------------------------------
    Center         ---- Electric Field Gradient ----
                   ----       Eigenvalues       ----
 -----------------------------------------------------
    1 Atom     -812.347503   -812.340062   -812.291806
    2 Atom     -500.999074   -500.262105   -500.226096
    3 Atom     -500.426173   -500.278388   -500.248683
    4 Atom     -500.360204   -500.272891   -500.193483
    5 Atom     -500.360204   -500.272891   -500.193483
    6 Atom     -500.426173   -500.278388   -500.248683
    7 Atom     -500.999074   -500.262105   -500.226096
    8 Atom     -812.347503   -812.340062   -812.291806
    9 Atom       -1.959268     -1.514567     -1.513630
   10 Atom       -1.963505     -1.518915     -1.517596
   11 Atom       -1.963508     -1.518916     -1.517597
   12 Atom       -2.021891     -1.661168     -1.636117
   13 Atom       -2.021898     -1.661171     -1.636121
   14 Atom       -2.049905     -1.676905     -1.657570
   15 Atom       -2.049912     -1.676909     -1.657574
   16 Atom       -2.055066     -1.678046     -1.662280
   17 Atom       -2.055074     -1.678050     -1.662284
   18 Atom       -2.055066     -1.678046     -1.662280
   19 Atom       -2.055074     -1.678050     -1.662284
   20 Atom       -2.049905     -1.676905     -1.657570
   21 Atom       -2.049912     -1.676909     -1.657574
   22 Atom       -2.021891     -1.661168     -1.636117
   23 Atom       -2.021898     -1.661171     -1.636121
   24 Atom       -1.959268     -1.514567     -1.513630
   25 Atom       -1.963505     -1.518915     -1.517596
   26 Atom       -1.963508     -1.518916     -1.517597
 -----------------------------------------------------
 -----------------------------------------------------
    Center         ---- Electric Field Gradient ----
                       ( tensor representation )
                   3XX-RR        3YY-RR        3ZZ-RR
 -----------------------------------------------------
    1 Atom       -0.010044      0.023650     -0.013605
    2 Atom       -0.327119      0.057457      0.269662
    3 Atom        0.026696     -0.095761      0.069065
    4 Atom       -0.041340     -0.040704      0.082043
    5 Atom       -0.041340     -0.040704      0.082043
    6 Atom        0.026696     -0.095761      0.069065
    7 Atom       -0.327119      0.057457      0.269662
    8 Atom       -0.010044      0.023650     -0.013605
    9 Atom        0.137879     -0.285800      0.147921
   10 Atom        0.029678      0.119258     -0.148936
   11 Atom        0.029505      0.119217     -0.148722
   12 Atom        0.025090      0.098421     -0.123511
   13 Atom        0.024947      0.098385     -0.123333
   14 Atom        0.018362      0.101261     -0.119623
   15 Atom        0.018202      0.101234     -0.119436
   16 Atom        0.018173      0.101966     -0.120139
   17 Atom        0.018016      0.101937     -0.119952
   18 Atom        0.018173      0.101966     -0.120139
   19 Atom        0.018016      0.101937     -0.119952
   20 Atom        0.018362      0.101261     -0.119623
   21 Atom        0.018202      0.101234     -0.119436
   22 Atom        0.025090      0.098421     -0.123511
   23 Atom        0.024947      0.098385     -0.123333
   24 Atom        0.137879     -0.285800      0.147921
   25 Atom        0.029678      0.119258     -0.148936
   26 Atom        0.029505      0.119217     -0.148722
 -----------------------------------------------------
 -----------------------------------------------------
    Center         ---- Electric Field Gradient ----
                       ( tensor representation )
                   ----       Eigenvalues       ----
 -----------------------------------------------------
    1 Atom       -0.021046     -0.013605      0.034651
    2 Atom       -0.503316      0.233654      0.269662
    3 Atom       -0.108425      0.039360      0.069065
    4 Atom       -0.084678      0.002635      0.082043
    5 Atom       -0.084678      0.002635      0.082043
    6 Atom       -0.108425      0.039360      0.069065
    7 Atom       -0.503316      0.233654      0.269662
    8 Atom       -0.021046     -0.013605      0.034651
    9 Atom       -0.296779      0.147921      0.148858
   10 Atom       -0.296833      0.147757      0.149076
   11 Atom       -0.296834      0.147758      0.149077
   12 Atom       -0.248833      0.111891      0.136942
   13 Atom       -0.248835      0.111892      0.136943
   14 Atom       -0.255112      0.117888      0.137223
   15 Atom       -0.255114      0.117889      0.137224
   16 Atom       -0.256602      0.120418      0.136184
   17 Atom       -0.256605      0.120420      0.136185
   18 Atom       -0.256602      0.120418      0.136184
   19 Atom       -0.256605      0.120420      0.136185
   20 Atom       -0.255112      0.117888      0.137223
   21 Atom       -0.255114      0.117889      0.137224
   22 Atom       -0.248833      0.111891      0.136942
   23 Atom       -0.248835      0.111892      0.136943
   24 Atom       -0.296779      0.147921      0.148858
   25 Atom       -0.296833      0.147757      0.149076
   26 Atom       -0.296834      0.147758      0.149077
 -----------------------------------------------------
 Calling FoFJK, ICntrl=      2127 FMM=F ISym2X=1 I1Cent= 0 IOpClX= 0 NMat=1 NMatS=1 NMatT=0.
 ***** Axes restored to original set *****
 -------------------------------------------------------------------
 Center     Atomic                   Forces (Hartrees/Bohr)
 Number     Number              X              Y              Z
 -------------------------------------------------------------------
      1        7          -0.001952592   -0.012935191   -0.000000623
      2        6           0.016358993    0.014021785   -0.000001261
      3        6          -0.003899012    0.005525759   -0.000000575
      4        6           0.010328857   -0.003458031   -0.000000292
      5        6          -0.010328857    0.003458031    0.000000292
      6        6           0.003899012   -0.005525759    0.000000575
      7        6          -0.016358993   -0.014021785    0.000001261
      8        7           0.001952592    0.012935191    0.000000623
      9        1          -0.009519364    0.013322880    0.000003224
     10        1           0.003966758   -0.007378402   -0.014344129
     11        1           0.003972912   -0.007382167    0.014340278
     12        1          -0.009598629    0.000069847    0.011611580
     13        1          -0.009603169    0.000071558   -0.011606758
     14        1           0.005667113   -0.002566671   -0.009578868
     15        1           0.005670359   -0.002568370    0.009575373
     16        1          -0.005762625    0.002267773    0.010548113
     17        1          -0.005766030    0.002269316   -0.010544595
     18        1           0.005762625   -0.002267773   -0.010548113
     19        1           0.005766030   -0.002269316    0.010544595
     20        1          -0.005667113    0.002566671    0.009578868
     21        1          -0.005670359    0.002568370   -0.009575373
     22        1           0.009598629   -0.000069847   -0.011611580
     23        1           0.009603169   -0.000071558    0.011606758
     24        1           0.009519364   -0.013322880   -0.000003224
     25        1          -0.003966758    0.007378402    0.014344129
     26        1          -0.003972912    0.007382167   -0.014340278
 -------------------------------------------------------------------
 Cartesian Forces:  Max     0.016358993 RMS     0.008217734

 GradGradGradGradGradGradGradGradGradGradGradGradGradGradGradGradGradGrad
 Berny optimization.
 FormGI is forming the generalized inverse of G from B-inverse, IUseBI=4.
 Internal  Forces:  Max     0.015685784 RMS     0.005963131
 Search for a local minimum.
 Step number   1 out of a maximum of  146
 All quantities printed in internal units (Hartrees-Bohrs-Radians)
 Mixed Optimization -- RFO/linear search
 Second derivative matrix not updated -- first step.
 ITU=  0
     Eigenvalues ---    0.00230   0.00230   0.00240   0.00283   0.00283
     Eigenvalues ---    0.00306   0.00306   0.03451   0.03451   0.03539
     Eigenvalues ---    0.03539   0.04060   0.04060   0.04760   0.04760
     Eigenvalues ---    0.04794   0.04794   0.04948   0.04948   0.05766
     Eigenvalues ---    0.05766   0.05774   0.05774   0.07400   0.07400
     Eigenvalues ---    0.08142   0.08142   0.08255   0.08255   0.11467
     Eigenvalues ---    0.11467   0.12074   0.12074   0.12161   0.12161
     Eigenvalues ---    0.16000   0.16000   0.16000   0.16000   0.16000
     Eigenvalues ---    0.16000   0.21874   0.21874   0.21926   0.21926
     Eigenvalues ---    0.21938   0.21938   0.28468   0.28468   0.28539
     Eigenvalues ---    0.28833   0.28833   0.31885   0.31885   0.31950
     Eigenvalues ---    0.31950   0.31950   0.31950   0.31969   0.31969
     Eigenvalues ---    0.31969   0.31969   0.32188   0.32188   0.32188
     Eigenvalues ---    0.32188   0.40578   0.40578   0.40578   0.40578
     Eigenvalues ---    0.40583   0.40583
 RFO step:  Lambda=-1.66699822D-02 EMin= 2.30000000D-03
 Linear search not attempted -- first point.
 Iteration  1 RMS(Cart)=  0.05349126 RMS(Int)=  0.00133021
 Iteration  2 RMS(Cart)=  0.00169521 RMS(Int)=  0.00048989
 Iteration  3 RMS(Cart)=  0.00000224 RMS(Int)=  0.00048989
 Iteration  4 RMS(Cart)=  0.00000000 RMS(Int)=  0.00048989
 ClnCor:  largest displacement from symmetrization is 5.31D-09 for atom    18.
 Variable       Old X    -DE/DX   Delta X   Delta X   Delta X     New X
                                 (Linear)    (Quad)   (Total)
    R1        2.84355   0.01000   0.00000   0.02980   0.02980   2.87334
    R2        1.97468  -0.01467   0.00000  -0.03473  -0.03473   1.93996
    R3        1.97476  -0.01564   0.00000  -0.03703  -0.03703   1.93773
    R4        1.97476  -0.01564   0.00000  -0.03703  -0.03703   1.93772
    R5        2.90354  -0.00105   0.00000  -0.00345  -0.00345   2.90009
    R6        2.10501  -0.01443   0.00000  -0.04264  -0.04264   2.06237
    R7        2.10501  -0.01443   0.00000  -0.04263  -0.04263   2.06237
    R8        2.91127  -0.00097   0.00000  -0.00322  -0.00322   2.90806
    R9        2.10936  -0.01140   0.00000  -0.03391  -0.03391   2.07545
   R10        2.10936  -0.01140   0.00000  -0.03391  -0.03391   2.07545
   R11        2.90975  -0.00129   0.00000  -0.00426  -0.00426   2.90549
   R12        2.10901  -0.01217   0.00000  -0.03617  -0.03617   2.07284
   R13        2.10901  -0.01216   0.00000  -0.03616  -0.03616   2.07284
   R14        2.91127  -0.00097   0.00000  -0.00322  -0.00322   2.90806
   R15        2.10901  -0.01217   0.00000  -0.03617  -0.03617   2.07284
   R16        2.10901  -0.01216   0.00000  -0.03616  -0.03616   2.07284
   R17        2.90354  -0.00105   0.00000  -0.00345  -0.00345   2.90009
   R18        2.10936  -0.01140   0.00000  -0.03391  -0.03391   2.07545
   R19        2.10936  -0.01140   0.00000  -0.03391  -0.03391   2.07545
   R20        2.84355   0.01000   0.00000   0.02980   0.02980   2.87334
   R21        2.10501  -0.01443   0.00000  -0.04264  -0.04264   2.06237
   R22        2.10501  -0.01443   0.00000  -0.04263  -0.04263   2.06237
   R23        1.97468  -0.01467   0.00000  -0.03473  -0.03473   1.93996
   R24        1.97476  -0.01564   0.00000  -0.03703  -0.03703   1.93773
   R25        1.97476  -0.01564   0.00000  -0.03703  -0.03703   1.93772
    A1        1.91059   0.00800   0.00000   0.04637   0.04561   1.95620
    A2        1.90999   0.00511   0.00000   0.02837   0.02783   1.93782
    A3        1.90998   0.00511   0.00000   0.02838   0.02784   1.93782
    A4        1.91161  -0.00638   0.00000  -0.03504  -0.03575   1.87586
    A5        1.91162  -0.00638   0.00000  -0.03505  -0.03575   1.87586
    A6        1.91001  -0.00544   0.00000  -0.03295  -0.03325   1.87676
    A7        1.87490   0.01569   0.00000   0.07108   0.07116   1.94606
    A8        1.90364  -0.00720   0.00000  -0.04333  -0.04459   1.85905
    A9        1.90364  -0.00720   0.00000  -0.04332  -0.04459   1.85905
   A10        1.93915  -0.00205   0.00000   0.00951   0.01040   1.94955
   A11        1.93914  -0.00205   0.00000   0.00952   0.01041   1.94955
   A12        1.90268   0.00260   0.00000  -0.00508  -0.00680   1.89588
   A13        1.95452   0.00053   0.00000   0.00353   0.00352   1.95805
   A14        1.90893  -0.00016   0.00000  -0.00056  -0.00057   1.90836
   A15        1.90892  -0.00016   0.00000  -0.00056  -0.00056   1.90836
   A16        1.90730   0.00002   0.00000   0.00136   0.00136   1.90866
   A17        1.90729   0.00003   0.00000   0.00137   0.00137   1.90866
   A18        1.87519  -0.00028   0.00000  -0.00553  -0.00553   1.86965
   A19        1.96735  -0.00018   0.00000   0.00134   0.00133   1.96867
   A20        1.90526   0.00010   0.00000   0.00091   0.00090   1.90617
   A21        1.90525   0.00011   0.00000   0.00092   0.00091   1.90616
   A22        1.90544   0.00033   0.00000   0.00318   0.00318   1.90862
   A23        1.90543   0.00033   0.00000   0.00319   0.00319   1.90862
   A24        1.87274  -0.00072   0.00000  -0.01017  -0.01016   1.86258
   A25        1.96735  -0.00018   0.00000   0.00134   0.00133   1.96867
   A26        1.90544   0.00033   0.00000   0.00318   0.00318   1.90862
   A27        1.90543   0.00033   0.00000   0.00319   0.00319   1.90862
   A28        1.90526   0.00010   0.00000   0.00091   0.00090   1.90617
   A29        1.90525   0.00011   0.00000   0.00092   0.00091   1.90616
   A30        1.87274  -0.00072   0.00000  -0.01017  -0.01016   1.86258
   A31        1.95452   0.00053   0.00000   0.00353   0.00352   1.95805
   A32        1.90730   0.00002   0.00000   0.00136   0.00136   1.90866
   A33        1.90729   0.00003   0.00000   0.00137   0.00137   1.90866
   A34        1.90893  -0.00016   0.00000  -0.00056  -0.00057   1.90836
   A35        1.90892  -0.00016   0.00000  -0.00056  -0.00056   1.90836
   A36        1.87519  -0.00028   0.00000  -0.00553  -0.00553   1.86965
   A37        1.87490   0.01569   0.00000   0.07108   0.07116   1.94606
   A38        1.93915  -0.00205   0.00000   0.00951   0.01040   1.94955
   A39        1.93914  -0.00205   0.00000   0.00952   0.01041   1.94955
   A40        1.90364  -0.00720   0.00000  -0.04333  -0.04459   1.85905
   A41        1.90364  -0.00720   0.00000  -0.04332  -0.04459   1.85905
   A42        1.90268   0.00260   0.00000  -0.00508  -0.00680   1.89588
   A43        1.91059   0.00800   0.00000   0.04637   0.04561   1.95620
   A44        1.90999   0.00511   0.00000   0.02837   0.02783   1.93782
   A45        1.90998   0.00511   0.00000   0.02838   0.02784   1.93782
   A46        1.91161  -0.00638   0.00000  -0.03504  -0.03575   1.87586
   A47        1.91162  -0.00638   0.00000  -0.03505  -0.03575   1.87586
   A48        1.91001  -0.00544   0.00000  -0.03295  -0.03325   1.87676
    D1       -3.14159   0.00000   0.00000   0.00000   0.00000   3.14159
    D2        1.03816  -0.00265   0.00000  -0.02848  -0.02753   1.01063
    D3       -1.03817   0.00265   0.00000   0.02848   0.02754  -1.01063
    D4       -1.04642   0.00021   0.00000   0.00284   0.00295  -1.04347
    D5        3.13333  -0.00244   0.00000  -0.02564  -0.02458   3.10875
    D6        1.05700   0.00286   0.00000   0.03133   0.03049   1.08749
    D7        1.04642  -0.00021   0.00000  -0.00285  -0.00295   1.04346
    D8       -1.05701  -0.00286   0.00000  -0.03133  -0.03049  -1.08750
    D9       -3.13335   0.00244   0.00000   0.02564   0.02459  -3.10876
   D10       -3.14159   0.00000   0.00000   0.00000   0.00000  -3.14159
   D11        1.02463  -0.00026   0.00000  -0.00366  -0.00366   1.02097
   D12       -1.02463   0.00026   0.00000   0.00367   0.00367  -1.02097
   D13       -1.06076  -0.00025   0.00000  -0.00333  -0.00296  -1.06372
   D14        3.10545  -0.00051   0.00000  -0.00699  -0.00661   3.09884
   D15        1.05619   0.00002   0.00000   0.00034   0.00071   1.05690
   D16        1.06078   0.00025   0.00000   0.00332   0.00294   1.06373
   D17       -1.05619  -0.00002   0.00000  -0.00034  -0.00071  -1.05690
   D18       -3.10545   0.00051   0.00000   0.00699   0.00661  -3.09884
   D19       -3.14159   0.00000   0.00000   0.00000   0.00000  -3.14159
   D20        1.02105  -0.00037   0.00000  -0.00558  -0.00558   1.01547
   D21       -1.02107   0.00037   0.00000   0.00559   0.00559  -1.01547
   D22       -1.02368   0.00015   0.00000   0.00254   0.00254  -1.02114
   D23        3.13896  -0.00022   0.00000  -0.00304  -0.00304   3.13593
   D24        1.09685   0.00053   0.00000   0.00813   0.00813   1.10498
   D25        1.02370  -0.00015   0.00000  -0.00256  -0.00256   1.02114
   D26       -1.09685  -0.00053   0.00000  -0.00813  -0.00813  -1.10498
   D27       -3.13896   0.00022   0.00000   0.00304   0.00304  -3.13593
   D28        3.14159   0.00000   0.00000   0.00000   0.00000   3.14159
   D29        1.02115  -0.00025   0.00000  -0.00429  -0.00429   1.01686
   D30       -1.02117   0.00025   0.00000   0.00430   0.00431  -1.01686
   D31       -1.02115   0.00025   0.00000   0.00429   0.00429  -1.01686
   D32        3.14159   0.00000   0.00000   0.00000   0.00000   3.14159
   D33        1.09928   0.00049   0.00000   0.00859   0.00860   1.10787
   D34        1.02117  -0.00025   0.00000  -0.00430  -0.00431   1.01686
   D35       -1.09928  -0.00049   0.00000  -0.00859  -0.00860  -1.10787
   D36        3.14159   0.00000   0.00000   0.00000   0.00000   3.14159
   D37        3.14159   0.00000   0.00000   0.00000   0.00000   3.14159
   D38        1.02368  -0.00015   0.00000  -0.00254  -0.00254   1.02114
   D39       -1.02370   0.00015   0.00000   0.00256   0.00256  -1.02114
   D40       -1.02105   0.00037   0.00000   0.00558   0.00558  -1.01547
   D41       -3.13896   0.00022   0.00000   0.00304   0.00304  -3.13593
   D42        1.09685   0.00053   0.00000   0.00813   0.00813   1.10498
   D43        1.02107  -0.00037   0.00000  -0.00559  -0.00559   1.01547
   D44       -1.09685  -0.00053   0.00000  -0.00813  -0.00813  -1.10498
   D45        3.13896  -0.00022   0.00000  -0.00304  -0.00304   3.13593
   D46        3.14159   0.00000   0.00000   0.00000   0.00000   3.14159
   D47        1.06076   0.00025   0.00000   0.00333   0.00296   1.06372
   D48       -1.06078  -0.00025   0.00000  -0.00332  -0.00294  -1.06373
   D49       -1.02463   0.00026   0.00000   0.00366   0.00366  -1.02097
   D50       -3.10545   0.00051   0.00000   0.00699   0.00661  -3.09884
   D51        1.05619   0.00002   0.00000   0.00034   0.00071   1.05690
   D52        1.02463  -0.00026   0.00000  -0.00367  -0.00367   1.02097
   D53       -1.05619  -0.00002   0.00000  -0.00034  -0.00071  -1.05690
   D54        3.10545  -0.00051   0.00000  -0.00699  -0.00661   3.09884
   D55        3.14159   0.00000   0.00000   0.00000   0.00000  -3.14159
   D56        1.04642  -0.00021   0.00000  -0.00284  -0.00295   1.04347
   D57       -1.04642   0.00021   0.00000   0.00285   0.00295  -1.04346
   D58       -1.03816   0.00265   0.00000   0.02848   0.02753  -1.01063
   D59       -3.13333   0.00244   0.00000   0.02564   0.02458  -3.10875
   D60        1.05701   0.00286   0.00000   0.03133   0.03049   1.08750
   D61        1.03817  -0.00265   0.00000  -0.02848  -0.02754   1.01063
   D62       -1.05700  -0.00286   0.00000  -0.03133  -0.03049  -1.08749
   D63        3.13335  -0.00244   0.00000  -0.02564  -0.02459   3.10876
         Item               Value     Threshold  Converged?
 Maximum Force            0.015686     0.000450     NO 
 RMS     Force            0.005963     0.000300     NO 
 Maximum Displacement     0.233187     0.001800     NO 
 RMS     Displacement     0.052976     0.001200     NO 
 Predicted change in Energy=-8.868739D-03
 GradGradGradGradGradGradGradGradGradGradGradGradGradGradGradGradGradGrad

                          Input orientation:                          
 ---------------------------------------------------------------------
 Center     Atomic      Atomic             Coordinates (Angstroms)
 Number     Number       Type             X           Y           Z
 ---------------------------------------------------------------------
      1          7           0       -2.178960   -3.899766    0.000096
      2          6           0       -0.888259   -3.096002   -0.000117
      3          6           0       -1.165578   -1.586606    0.000105
      4          6           0        0.130875   -0.757538   -0.000110
      5          6           0       -0.130875    0.757537    0.000110
      6          6           0        1.165577    1.586606   -0.000105
      7          6           0        0.888258    3.096002    0.000117
      8          7           0        2.178959    3.899766   -0.000096
      9          1           0       -2.003702   -4.911278   -0.000053
     10          1           0       -2.745713   -3.685512    0.827339
     11          1           0       -2.746096   -3.685333   -0.826838
     12          1           0       -0.331221   -3.403825   -0.886697
     13          1           0       -0.330814   -3.404011    0.886142
     14          1           0       -1.763696   -1.326800    0.883833
     15          1           0       -1.764105   -1.326616   -0.883292
     16          1           0        0.729014   -1.023013   -0.880418
     17          1           0        0.729421   -1.023197    0.879867
     18          1           0       -0.729015    1.023013    0.880418
     19          1           0       -0.729421    1.023197   -0.879867
     20          1           0        1.763695    1.326800   -0.883833
     21          1           0        1.764105    1.326616    0.883292
     22          1           0        0.331221    3.403825    0.886697
     23          1           0        0.330814    3.404010   -0.886143
     24          1           0        2.003701    4.911277    0.000053
     25          1           0        2.745712    3.685512   -0.827340
     26          1           0        2.746096    3.685333    0.826838
[...]
     2  C   -0.002926  -0.002746  -0.002746   0.000463   0.000463  -0.000107
     3  C    0.003354   0.008518   0.008518   0.002197   0.002197  -0.000313
     4  C   -0.073475   0.006445   0.006445  -0.008078  -0.008078  -0.001795
     5  C    0.485389  -0.069993  -0.069993  -0.013038  -0.013037  -0.000588
     6  C   -0.071415   0.462994   0.462995  -0.035697  -0.035697   0.015654
     7  C    0.009616  -0.072261  -0.072262   0.384237   0.384236  -0.017517
     8  N   -0.000323   0.000879   0.000877  -0.009717  -0.009717   0.332937
     9  H   -0.000022   0.000004   0.000004   0.000001   0.000001   0.000000
    10  H    0.000050   0.000025   0.000004  -0.000002  -0.000001   0.000000
    11  H   -0.000071   0.000004   0.000025  -0.000001  -0.000002   0.000000
    12  H    0.000602  -0.000007   0.000337  -0.000042   0.000015   0.000001
    13  H   -0.000031   0.000337  -0.000007   0.000015  -0.000042   0.000001
    14  H    0.002988  -0.000086   0.002062  -0.000007   0.000337   0.000004
    15  H    0.002378   0.002062  -0.000086   0.000337  -0.000007   0.000004
    16  H   -0.015001   0.002377   0.002988  -0.000031   0.000602  -0.000022
    17  H    0.010750   0.002988   0.002378   0.000602  -0.000031  -0.000022
    18  H   -0.076620   0.016212  -0.025395   0.007468  -0.003778   0.000226
    19  H    0.573254  -0.025396   0.016212  -0.003778   0.007468   0.000226
    20  H   -0.025396   0.597057  -0.096893   0.019291  -0.023783   0.000201
    21  H    0.016212  -0.096893   0.597057  -0.023783   0.019291   0.000201
    22  H   -0.003778   0.019291  -0.023783   0.476009  -0.039123  -0.000330
    23  H    0.007468  -0.023783   0.019291  -0.039123   0.476009  -0.000330
    24  H    0.000226   0.000201   0.000201  -0.000330  -0.000330   0.332987
    25  H    0.001112   0.002681   0.000301   0.004840  -0.010563  -0.012203
    26  H   -0.001009   0.000301   0.002682  -0.010563   0.004840  -0.012203
              25         26
     1  N    0.000000   0.000000
     2  C    0.000032   0.000032
     3  C   -0.000071  -0.000071
     4  C   -0.000338  -0.000338
     5  C    0.003322   0.003322
     6  C    0.004419   0.004419
     7  C   -0.011967  -0.011968
     8  N    0.348953   0.348953
     9  H    0.000000   0.000000
    10  H   -0.000001  -0.000001
    11  H   -0.000001  -0.000001
    12  H   -0.000002  -0.000001
    13  H   -0.000001  -0.000002
    14  H    0.000025   0.000004
    15  H    0.000004   0.000025
    16  H   -0.000071   0.000050
    17  H    0.000050  -0.000071
    18  H   -0.001009   0.001112
    19  H    0.001112  -0.001009
    20  H    0.002681   0.000301
    21  H    0.000301   0.002682
    22  H    0.004840  -0.010563
    23  H   -0.010563   0.004840
    24  H   -0.012203  -0.012203
    25  H    0.355727  -0.027031
    26  H   -0.027031   0.355728
 Mulliken charges:
               1
     1  N   -0.203924
     2  C   -0.638549
     3  C   -0.246441
     4  C   -0.105028
     5  C   -0.105028
     6  C   -0.246441
     7  C   -0.638549
     8  N   -0.203924
     9  H    0.362987
    10  H    0.341790
    11  H    0.341790
    12  H    0.248722
    13  H    0.248722
    14  H    0.168600
    15  H    0.168599
    16  H    0.156366
    17  H    0.156366
    18  H    0.156366
    19  H    0.156366
    20  H    0.168600
    21  H    0.168599
    22  H    0.248722
    23  H    0.248722
    24  H    0.362987
    25  H    0.341790
    26  H    0.341790
 Sum of Mulliken charges =   2.00000
 Mulliken charges with hydrogens summed into heavy atoms:
               1
     1  N    0.842643
     2  C   -0.141105
     3  C    0.090758
     4  C    0.207703
     5  C    0.207703
     6  C    0.090758
     7  C   -0.141105
     8  N    0.842643
 Electronic spatial extent (au):  <R**2>=           2400.5866
 Charge=              2.0000 electrons
 Dipole moment (field-independent basis, Debye):
    X=              0.0000    Y=              0.0000    Z=              0.0000  Tot=              0.0000
 Quadrupole moment (field-independent basis, Debye-Ang):
   XX=             -5.1769   YY=             88.0379   ZZ=            -43.9645
   XY=             71.3122   XZ=             -0.0015   YZ=             -0.0027
 Traceless Quadrupole moment (field-independent basis, Debye-Ang):
   XX=            -18.1424   YY=             75.0724   ZZ=            -56.9300
   XY=             71.3122   XZ=             -0.0015   YZ=             -0.0027
 Octapole moment (field-independent basis, Debye-Ang**2):
  XXX=              0.0000  YYY=              0.0000  ZZZ=              0.0000  XYY=              0.0000
  XXY=              0.0000  XXZ=              0.0000  XZZ=              0.0000  YZZ=              0.0000
  YYZ=              0.0000  XYZ=              0.0000
 Hexadecapole moment (field-independent basis, Debye-Ang**3):
 XXXX=           -320.4730 YYYY=            316.8650 ZZZZ=            -89.1976 XXXY=            -37.6665
 XXXZ=              0.0134 YYYX=            725.8108 YYYZ=             -0.0376 ZZZX=             -0.0009
 ZZZY=             -0.0048 XXYY=            223.9950 XXZZ=            -81.9244 YYZZ=           -307.8848
 XXYZ=             -0.0142 YYXZ=             -0.0225 ZZXY=           -118.5715
 N-N= 3.955008570975D+02 E-N=-1.579013881206D+03  KE= 3.468509307798D+02
 Symmetry AG   KE= 1.750548401051D+02
 Symmetry AU   KE= 1.717960906748D+02

 **********************************************************************

            Electrostatic Properties Using The SCF Density

 **********************************************************************

       Atomic Center    1 is at  -2.175265 -3.894490  0.000096
       Atomic Center    2 is at  -0.885305 -3.077837 -0.000115
       Atomic Center    3 is at  -1.174675 -1.578148  0.000109
       Atomic Center    4 is at   0.129871 -0.758126 -0.000107
       Atomic Center    5 is at  -0.129871  0.758126  0.000107
       Atomic Center    6 is at   1.174675  1.578148 -0.000109
       Atomic Center    7 is at   0.885305  3.077837  0.000115
       Atomic Center    8 is at   2.175265  3.894490 -0.000096
       Atomic Center    9 is at  -1.982509 -4.902122 -0.000060
       Atomic Center   10 is at  -2.749522 -3.694412  0.825947
       Atomic Center   11 is at  -2.749906 -3.694229 -0.825443
       Atomic Center   12 is at  -0.333112 -3.392413 -0.886468
       Atomic Center   13 is at  -0.332702 -3.392600  0.885915
       Atomic Center   14 is at  -1.770477 -1.318241  0.882646
       Atomic Center   15 is at  -1.770886 -1.318056 -0.882098
       Atomic Center   16 is at   0.726568 -1.025585 -0.878883
       Atomic Center   17 is at   0.726972 -1.025765  0.878339
       Atomic Center   18 is at  -0.726568  1.025585  0.878883
       Atomic Center   19 is at  -0.726972  1.025765 -0.878339
       Atomic Center   20 is at   1.770477  1.318241 -0.882646
       Atomic Center   21 is at   1.770886  1.318056  0.882098
       Atomic Center   22 is at   0.333112  3.392413  0.886468
       Atomic Center   23 is at   0.332702  3.392600 -0.885915
       Atomic Center   24 is at   1.982509  4.902122  0.000060
       Atomic Center   25 is at   2.749522  3.694412 -0.825947
       Atomic Center   26 is at   2.749906  3.694229  0.825443
 -----------------------------------------------------------------

              Electrostatic Properties (Atomic Units)

 -----------------------------------------------------------------
    Center     Electric         -------- Electric Field --------
               Potential          X             Y             Z
 -----------------------------------------------------------------
    1 Atom    -17.996020      0.006406      0.003823     -0.000001
    2 Atom    -14.445396      0.009724      0.009321     -0.000001
    3 Atom    -14.505955      0.002277      0.003481      0.000000
    4 Atom    -14.523126     -0.000063      0.001887      0.000000
    5 Atom    -14.523126      0.000063     -0.001887      0.000000
    6 Atom    -14.505955     -0.002277     -0.003481      0.000000
    7 Atom    -14.445396     -0.009724     -0.009321      0.000001
    8 Atom    -17.996020     -0.006406     -0.003823      0.000001
    9 Atom     -0.681993      0.004034     -0.020619     -0.000003
   10 Atom     -0.682231     -0.011679      0.004033      0.016873
   11 Atom     -0.682231     -0.011687      0.004037     -0.016866
   12 Atom     -0.827195      0.009901     -0.005385     -0.015352
   13 Atom     -0.827195      0.009908     -0.005389      0.015346
   14 Atom     -0.861241     -0.009638      0.004833      0.014594
   15 Atom     -0.861240     -0.009645      0.004836     -0.014589
   16 Atom     -0.881858      0.009929     -0.004341     -0.014595
   17 Atom     -0.881858      0.009936     -0.004344      0.014590
   18 Atom     -0.881858     -0.009929      0.004341      0.014595
   19 Atom     -0.881858     -0.009936      0.004344     -0.014590
   20 Atom     -0.861241      0.009638     -0.004833     -0.014594
   21 Atom     -0.861240      0.009645     -0.004836      0.014589
   22 Atom     -0.827195     -0.009901      0.005385      0.015352
   23 Atom     -0.827195     -0.009908      0.005389     -0.015346
   24 Atom     -0.681993     -0.004034      0.020619      0.000003
   25 Atom     -0.682231      0.011679     -0.004033     -0.016873
   26 Atom     -0.682231      0.011687     -0.004037      0.016866
 -----------------------------------------------------------------
 -----------------------------------------------------
    Center         ---- Electric Field Gradient ----
                     XX            YY            ZZ
 -----------------------------------------------------
    1 Atom     -812.329472   -812.301070   -812.304724
    2 Atom     -500.928385   -500.545822   -500.281297
    3 Atom     -500.263411   -500.417165   -500.195945
    4 Atom     -500.326065   -500.333691   -500.175195
    5 Atom     -500.326065   -500.333691   -500.175195
    6 Atom     -500.263411   -500.417165   -500.195945
    7 Atom     -500.928385   -500.545822   -500.281297
    8 Atom     -812.329472   -812.301070   -812.304724
    9 Atom       -1.568710     -2.036533     -1.547615
   10 Atom       -1.710550     -1.575996     -1.889088
   11 Atom       -1.710762     -1.576034     -1.888840
   12 Atom       -1.798435     -1.723574     -1.970137
   13 Atom       -1.798600     -1.723619     -1.969928
   14 Atom       -1.814512     -1.722517     -1.970824
   15 Atom       -1.814692     -1.722551     -1.970612
   16 Atom       -1.822904     -1.729909     -1.977580
   17 Atom       -1.823081     -1.729946     -1.977368
   18 Atom       -1.822904     -1.729909     -1.977580
   19 Atom       -1.823081     -1.729946     -1.977368
   20 Atom       -1.814512     -1.722517     -1.970824
   21 Atom       -1.814692     -1.722551     -1.970612
   22 Atom       -1.798435     -1.723574     -1.970137
   23 Atom       -1.798600     -1.723619     -1.969928
   24 Atom       -1.568710     -2.036533     -1.547615
   25 Atom       -1.710550     -1.575996     -1.889088
   26 Atom       -1.710762     -1.576034     -1.888840
 -----------------------------------------------------
 -----------------------------------------------------
    Center         ---- Electric Field Gradient ----
                     XY            XZ            YZ
 -----------------------------------------------------
    1 Atom       -0.010928      0.000005      0.000003
    2 Atom       -0.360309      0.000112      0.000055
    3 Atom        0.025114      0.000018     -0.000029
    4 Atom       -0.053918      0.000029     -0.000004
    5 Atom       -0.053918      0.000029     -0.000004
    6 Atom        0.025114      0.000018     -0.000029
    7 Atom       -0.360309      0.000112      0.000055
    8 Atom       -0.010928      0.000005      0.000003
    9 Atom        0.098824      0.000016     -0.000077
   10 Atom        0.056389      0.227989     -0.084476
   11 Atom        0.056478     -0.228060      0.084519
   12 Atom        0.049864      0.177550     -0.107462
   13 Atom        0.049951     -0.177619      0.107491
   14 Atom        0.049368      0.193325     -0.080053
   15 Atom        0.049446     -0.193387      0.080082
   16 Atom        0.051683      0.192406     -0.087229
   17 Atom        0.051763     -0.192467      0.087256
   18 Atom        0.051683      0.192406     -0.087229
   19 Atom        0.051763     -0.192467      0.087256
   20 Atom        0.049368      0.193325     -0.080053
   21 Atom        0.049446     -0.193387      0.080082
   22 Atom        0.049864      0.177550     -0.107462
   23 Atom        0.049951     -0.177619      0.107491
   24 Atom        0.098824      0.000016     -0.000077
   25 Atom        0.056389      0.227989     -0.084476
   26 Atom        0.056478     -0.228060      0.084519
 -----------------------------------------------------
 -----------------------------------------------------
    Center         ---- Electric Field Gradient ----
                   ----       Eigenvalues       ----
 -----------------------------------------------------
    1 Atom     -812.333190   -812.304724   -812.297352
    2 Atom     -501.145039   -500.329168   -500.281297
    3 Atom     -500.421163   -500.259413   -500.195945
    4 Atom     -500.383930   -500.275825   -500.175195
    5 Atom     -500.383930   -500.275825   -500.175195
    6 Atom     -500.421163   -500.259413   -500.195945
    7 Atom     -501.145039   -500.329168   -500.281297
    8 Atom     -812.333190   -812.304724   -812.297352
    9 Atom       -2.056552     -1.548691     -1.547615
   10 Atom       -2.065724     -1.555970     -1.553939
   11 Atom       -2.065726     -1.555971     -1.553939
   12 Atom       -2.116688     -1.701982     -1.673476
   13 Atom       -2.116688     -1.701982     -1.673476
   14 Atom       -2.123233     -1.701288     -1.683331
   15 Atom       -2.123234     -1.701289     -1.683331
   16 Atom       -2.133026     -1.706924     -1.690443
   17 Atom       -2.133027     -1.706924     -1.690444
   18 Atom       -2.133026     -1.706924     -1.690443
   19 Atom       -2.133027     -1.706924     -1.690444
   20 Atom       -2.123233     -1.701288     -1.683331
   21 Atom       -2.123234     -1.701289     -1.683331
   22 Atom       -2.116688     -1.701982     -1.673476
   23 Atom       -2.116688     -1.701982     -1.673476
   24 Atom       -2.056552     -1.548691     -1.547615
   25 Atom       -2.065724     -1.555970     -1.553939
   26 Atom       -2.065726     -1.555971     -1.553939
 -----------------------------------------------------
 -----------------------------------------------------
    Center         ---- Electric Field Gradient ----
                       ( tensor representation )
                   3XX-RR        3YY-RR        3ZZ-RR
 -----------------------------------------------------
    1 Atom       -0.017717      0.010686      0.007032
    2 Atom       -0.343217      0.039346      0.303871
    3 Atom        0.028762     -0.124991      0.096229
    4 Atom       -0.047748     -0.055374      0.103122
    5 Atom       -0.047748     -0.055374      0.103122
    6 Atom        0.028762     -0.124991      0.096229
    7 Atom       -0.343217      0.039346      0.303871
    8 Atom       -0.017717      0.010686      0.007032
    9 Atom        0.148909     -0.318913      0.170004
   10 Atom        0.014662      0.149215     -0.163877
   11 Atom        0.014450      0.149178     -0.163628
   12 Atom        0.032280      0.107142     -0.139422
   13 Atom        0.032116      0.107096     -0.139212
   14 Atom        0.021439      0.113434     -0.134873
   15 Atom        0.021260      0.113401     -0.134660
   16 Atom        0.020561      0.113555     -0.134116
   17 Atom        0.020384      0.113519     -0.133903
   18 Atom        0.020561      0.113555     -0.134116
   19 Atom        0.020384      0.113519     -0.133903
   20 Atom        0.021439      0.113434     -0.134873
   21 Atom        0.021260      0.113401     -0.134660
   22 Atom        0.032280      0.107142     -0.139422
   23 Atom        0.032116      0.107096     -0.139212
   24 Atom        0.148909     -0.318913      0.170004
   25 Atom        0.014662      0.149215     -0.163877
   26 Atom        0.014450      0.149178     -0.163628
 -----------------------------------------------------
 -----------------------------------------------------
    Center         ---- Electric Field Gradient ----
                       ( tensor representation )
                   ----       Eigenvalues       ----
 -----------------------------------------------------
    1 Atom       -0.021435      0.007032      0.014403
    2 Atom       -0.559871      0.256000      0.303871
    3 Atom       -0.128989      0.032761      0.096229
    4 Atom       -0.105613      0.002491      0.103122
    5 Atom       -0.105613      0.002491      0.103122
    6 Atom       -0.128989      0.032761      0.096229
    7 Atom       -0.559871      0.256000      0.303871
    8 Atom       -0.021435      0.007032      0.014403
    9 Atom       -0.338933      0.168929      0.170004
   10 Atom       -0.340513      0.169241      0.171272
   11 Atom       -0.340514      0.169241      0.171273
   12 Atom       -0.285972      0.128733      0.157239
   13 Atom       -0.285973      0.128733      0.157239
   14 Atom       -0.287282      0.134663      0.152620
   15 Atom       -0.287283      0.134663      0.152620
   16 Atom       -0.289562      0.136541      0.153021
   17 Atom       -0.289562      0.136541      0.153021
   18 Atom       -0.289562      0.136541      0.153021
   19 Atom       -0.289562      0.136541      0.153021
   20 Atom       -0.287282      0.134663      0.152620
   21 Atom       -0.287283      0.134663      0.152620
   22 Atom       -0.285972      0.128733      0.157239
   23 Atom       -0.285973      0.128733      0.157239
   24 Atom       -0.338933      0.168929      0.170004
   25 Atom       -0.340513      0.169241      0.171272
   26 Atom       -0.340514      0.169241      0.171273
 -----------------------------------------------------

 Test job not archived.
 1|1|UNPC-NP-ALMACH|FOpt|RB3LYP|6-311++G(d,p)|C6H18N2(2+)|HERA|06-Aug-2
 018|0||# RB3LYP/6-311++G** Opt Test prop=EFG||C6N2H18||2,1|N,-2.175265
 4578,-3.8944907613,0.000095764|C,-0.8853057823,-3.0778377051,-0.000115
 4071|C,-1.1746756023,-1.5781483133,0.000108592|C,0.1298703547,-0.75812
 66254,-0.0001073488|C,-0.1298710606,0.758126096,0.0001070253|C,1.17467
 48964,1.5781477839,-0.0001089156|C,0.8853050764,3.0778371757,0.0001150
 836|N,2.175264752,3.8944902319,-0.0000960876|H,-1.9825093556,-4.902122
 5053,-0.0000600354|H,-2.7495227422,-3.694412015,0.8259465562|H,-2.7499
 062894,-3.6942293789,-0.8254436079|H,-0.333112471,-3.3924129056,-0.886
 4677179|H,-0.3327028232,-3.3926003585,0.8859148301|H,-1.7704778004,-1.
 3182416564,0.8826454846|H,-1.7708860102,-1.318056696,-0.882097719|H,0.
 7265678532,-1.0255851588,-0.8788830772|H,0.7269720446,-1.0257652988,0.
 8783385109|H,-0.7265685591,1.0255846294,0.8788827537|H,-0.7269727505,1
 .0257647694,-0.8783388344|H,1.7704770946,1.318241127,-0.8826458082|H,1
 .7708853043,1.3180561666,0.8820973955|H,0.3331117651,3.3924123762,0.88
 64673944|H,0.3327021173,3.3925998291,-0.8859151537|H,1.9825086497,4.90
 21219759,0.0000597119|H,2.7495220363,3.6944114856,-0.8259468798|H,2.74
 99055836,3.6942288495,0.8254432844||Version=EM64W-G09RevD.01|State=1-A
 G|HF=-348.5393059|RMSD=6.811e-009|RMSF=1.712e-004|Dipole=0.,0.,0.|Quad
 rupole=-13.4884419,55.8144785,-42.3260366,53.0188629,-0.0011274,-0.002
 0088|PG=CI [X(C6H18N2)]||@


 THE TRULY SUCCESSFUL PERFORMANCE OF RESEARCHES IN
 INORGANIC CHEMISTRY IS POSSIBLE ONLY TO ONE WHO IS NOT
 ONLY A THEORETICAL CHEMIST, BUT ALSO AN ACCOMPLISHED
 ANALYST AND, MOREOVER, NOT MERELY A PRACTICALLY TRAINED,
 MECHANICAL WORKER, BUT A THINKING CREATIVE ARTIST.
   --  CLEMENS WINKLER, BER. 33, 1697(1900)
 Job cpu time:       0 days  0 hours  2 minutes 33.0 seconds.
 File lengths (MBytes):  RWF=     43 Int=      0 D2E=      0 Chk=      7 Scr=      1
 Normal termination of Gaussian 09 at Mon Aug 06 18:48:07 2018.
