 Entering Link 1 = C:\G09W\l1.exe PID=     27292.
  
 Copyright (c) 1988,1990,1992,1993,1995,1998,2003,2009,2013,
            Gaussian, Inc.  All Rights Reserved.
  
 This is part of the Gaussian(R) 09 program.  It is based on
 the Gaussian(R) 03 system (copyright 2003, Gaussian, Inc.),
 the Gaussian(R) 98 system (copyright 1998, Gaussian, Inc.),
 the Gaussian(R) 94 system (copyright 1995, Gaussian, Inc.),
 the Gaussian 92(TM) system (copyright 1992, Gaussian, Inc.),
 the Gaussian 90(TM) system (copyright 1990, Gaussian, Inc.),
 the Gaussian 88(TM) system (copyright 1988, Gaussian, Inc.),
 the Gaussian 86(TM) system (copyright 1986, Carnegie Mellon
 University), and the Gaussian 82(TM) system (copyright 1983,
 Carnegie Mellon University). Gaussian is a federally registered
 trademark of Gaussian, Inc.
  
 This software contains proprietary and confidential information,
 including trade secrets, belonging to Gaussian, Inc.
  
 This software is provided under written license and may be
 used, copied, transmitted, or stored only in accord with that
 written license.
  
 The following legend is applicable only to US Government
 contracts under FAR:
  
                    RESTRICTED RIGHTS LEGEND
  
 Use, reproduction and disclosure by the US Government is
 subject to restrictions as set forth in subparagraphs (a)
 and (c) of the Commercial Computer Software - Restricted
 Rights clause in FAR 52.227-19.
  
 Gaussian, Inc.
 340 Quinnipiac St., Bldg. 40, Wallingford CT 06492
  
  
 ---------------------------------------------------------------
 Warning -- This program may not be used in any manner that
 competes with the business of Gaussian, Inc. or will provide
 assistance to any competitor of Gaussian, Inc.  The licensee
 of this program is prohibited from giving any competitor of
 Gaussian, Inc. access to this program.  By using this program,
 the user acknowledges that Gaussian, Inc. is engaged in the
 business of creating and licensing software in the field of
 computational chemistry and represents and warrants to the
 licensee that it is not a competitor of Gaussian, Inc. and that
 it will not use this program in any manner prohibited above.
 ---------------------------------------------------------------
  

 Cite this work as:
 Gaussian 09, Revision D.01,
 M. J. Frisch, G. W. Trucks, H. B. Schlegel, G. E. Scuseria, 
 M. A. Robb, J. R. Cheeseman, G. Scalmani, V. Barone, B. Mennucci, 
 G. A. Petersson, H. Nakatsuji, M. Caricato, X. Li, H. P. Hratchian, 
 A. F. Izmaylov, J. Bloino, G. Zheng, J. L. Sonnenberg, M. Hada, 
 M. Ehara, K. Toyota, R. Fukuda, J. Hasegawa, M. Ishida, T. Nakajima, 
 Y. Honda, O. Kitao, H. Nakai, T. Vreven, J. A. Montgomery, Jr., 
 J. E. Peralta, F. Ogliaro, M. Bearpark, J. J. Heyd, E. Brothers, 
 K. N. Kudin, V. N. Staroverov, T. Keith, R. Kobayashi, J. Normand, 
 K. Raghavachari, A. Rendell, J. C. Burant, S. S. Iyengar, J. Tomasi, 
 M. Cossi, N. Rega, J. M. Millam, M. Klene, J. E. Knox, J. B. Cross, 
 V. Bakken, C. Adamo, J. Jaramillo, R. Gomperts, R. E. Stratmann, 
 O. Yazyev, A. J. Austin, R. Cammi, C. Pomelli, J. W. Ochterski, 
 R. L. Martin, K. Morokuma, V. G. Zakrzewski, G. A. Voth, 
 P. Salvador, J. J. Dannenberg, S. Dapprich, A. D. Daniels, 
 O. Farkas, J. B. Foresman, J. V. Ortiz, J. Cioslowski, 
 and D. J. Fox, Gaussian, Inc., Wallingford CT, 2013.
 
 ******************************************
 Gaussian 09:  EM64W-G09RevD.01 13-Apr-2013
                04-Aug-2018 
 ******************************************
 %Chk=Anth_291.chk
 %Mem=64GB
 %NProcShared=20
 Will use up to   20 processors via shared memory.
 -------------------------------------
 # RB3LYP/6-311++G** Opt Test prop=EFG
 -------------------------------------
 1/14=-1,18=20,19=15,26=3,38=1/1,3;
 2/9=110,12=2,17=6,18=5,40=1/2;
 3/5=4,6=6,7=1111,11=2,16=1,25=1,30=1,71=1,74=-5,116=1/1,2,3;
 4//1;
 5/5=2,38=5/2;
 6/7=2,8=2,9=2,10=2,14=1,28=1/1,2;
 7//1,2,3,16;
 1/14=-1,18=20,19=15,26=3/3(2);
 2/9=110/2;
 99//99;
 2/9=110/2;
 3/5=4,6=6,7=1111,11=2,16=1,25=1,30=1,71=1,74=-5,116=1/1,2,3;
 4/5=5,16=3,69=1/1;
 5/5=2,38=5/2;
 7//1,2,3,16;
 1/14=-1,18=20,19=15,26=3/3(-5);
 2/9=110/2;
 6/7=2,8=2,9=2,10=2,14=1,19=2,28=1/1,2;
 99/9=1/99;
 -------
 C6N2H16
 -------
 Symbolic Z-matrix:
 Charge =  2 Multiplicity = 1
 C                     1.23611   0.18596   1.51959 
 C                    -0.05574   0.95529   1.81945 
 C                    -0.60051   1.56844   0.52491 
 C                    -0.87793   0.51061  -0.56021 
 C                     0.34908  -0.4073   -0.80346 
 C                     0.94487  -0.93472   0.51573 
 N                    -0.00504  -1.72034  -1.48618 
 N                    -1.20185   1.41194  -1.74272 
 H                     1.64955  -0.24372   2.46349 
 H                     2.00774   0.87613   1.1038 
 H                    -0.81672   0.27157   2.26446 
 H                     0.14624   1.75866   2.56798 
 H                    -1.53487   2.1372    0.75047 
 H                     0.14947   2.30681   0.15072 
 H                    -1.77455  -0.0963   -0.29744 
 H                     1.12463   0.12586  -1.3998 
 H                     0.23206  -1.6495    0.99389 
 H                     1.88596  -1.49986   0.30996 
 H                    -0.40029  -1.5206   -2.4327 
 H                    -0.71496  -2.22962  -0.91283 
 H                     0.85459  -2.30681  -1.58169 
 H                    -2.00774   2.03093  -1.49896 
 H                    -0.36715   1.99721  -1.97252 
 H                    -1.45061   0.82108  -2.56798 
 

 GradGradGradGradGradGradGradGradGradGradGradGradGradGradGradGradGradGrad
 Berny optimization.
 Initialization pass.
                           ----------------------------
                           !    Initial Parameters    !
                           ! (Angstroms and Degrees)  !
 --------------------------                            --------------------------
 ! Name  Definition              Value          Derivative Info.                !
 --------------------------------------------------------------------------------
 ! R1    R(1,2)                  1.5332         estimate D2E/DX2                !
 ! R2    R(1,6)                  1.5325         estimate D2E/DX2                !
 ! R3    R(1,9)                  1.1165         estimate D2E/DX2                !
 ! R4    R(1,10)                 1.1156         estimate D2E/DX2                !
 ! R5    R(2,3)                  1.5325         estimate D2E/DX2                !
 ! R6    R(2,11)                 1.1156         estimate D2E/DX2                !
 ! R7    R(2,12)                 1.1165         estimate D2E/DX2                !
 ! R8    R(3,4)                  1.5406         estimate D2E/DX2                !
 ! R9    R(3,13)                 1.1169         estimate D2E/DX2                !
 ! R10   R(3,14)                 1.117          estimate D2E/DX2                !
 ! R11   R(4,5)                  1.5515         estimate D2E/DX2                !
 ! R12   R(4,8)                  1.5217         estimate D2E/DX2                !
 ! R13   R(4,15)                 1.1141         estimate D2E/DX2                !
 ! R14   R(5,6)                  1.5406         estimate D2E/DX2                !
 ! R15   R(5,7)                  1.5217         estimate D2E/DX2                !
 ! R16   R(5,16)                 1.1142         estimate D2E/DX2                !
 ! R17   R(6,17)                 1.117          estimate D2E/DX2                !
 ! R18   R(6,18)                 1.1169         estimate D2E/DX2                !
 ! R19   R(7,19)                 1.045          estimate D2E/DX2                !
 ! R20   R(7,20)                 1.045          estimate D2E/DX2                !
 ! R21   R(7,21)                 1.045          estimate D2E/DX2                !
 ! R22   R(8,22)                 1.045          estimate D2E/DX2                !
 ! R23   R(8,23)                 1.045          estimate D2E/DX2                !
 ! R24   R(8,24)                 1.045          estimate D2E/DX2                !
 ! A1    A(2,1,6)              109.5686         estimate D2E/DX2                !
 ! A2    A(2,1,9)              109.864          estimate D2E/DX2                !
 ! A3    A(2,1,10)             110.1973         estimate D2E/DX2                !
 ! A4    A(6,1,9)              110.0441         estimate D2E/DX2                !
 ! A5    A(6,1,10)             109.8588         estimate D2E/DX2                !
 ! A6    A(9,1,10)             107.2803         estimate D2E/DX2                !
 ! A7    A(1,2,3)              109.5771         estimate D2E/DX2                !
 ! A8    A(1,2,11)             110.1966         estimate D2E/DX2                !
 ! A9    A(1,2,12)             109.8622         estimate D2E/DX2                !
 ! A10   A(3,2,11)             109.8576         estimate D2E/DX2                !
 ! A11   A(3,2,12)             110.0443         estimate D2E/DX2                !
 ! A12   A(11,2,12)            107.2751         estimate D2E/DX2                !
 ! A13   A(2,3,4)              112.598          estimate D2E/DX2                !
 ! A14   A(2,3,13)             109.3011         estimate D2E/DX2                !
 ! A15   A(2,3,14)             107.9861         estimate D2E/DX2                !
 ! A16   A(4,3,13)             109.9542         estimate D2E/DX2                !
 ! A17   A(4,3,14)             109.8066         estimate D2E/DX2                !
 ! A18   A(13,3,14)            107.0217         estimate D2E/DX2                !
 ! A19   A(3,4,5)              111.9774         estimate D2E/DX2                !
 ! A20   A(3,4,8)              100.3097         estimate D2E/DX2                !
 ! A21   A(3,4,15)             110.6606         estimate D2E/DX2                !
 ! A22   A(5,4,8)              113.3856         estimate D2E/DX2                !
 ! A23   A(5,4,15)             110.5574         estimate D2E/DX2                !
 ! A24   A(8,4,15)             109.5493         estimate D2E/DX2                !
 ! A25   A(4,5,6)              111.9701         estimate D2E/DX2                !
 ! A26   A(4,5,7)              113.3776         estimate D2E/DX2                !
 ! A27   A(4,5,16)             110.5672         estimate D2E/DX2                !
 ! A28   A(6,5,7)              100.2979         estimate D2E/DX2                !
 ! A29   A(6,5,16)             110.6676         estimate D2E/DX2                !
 ! A30   A(7,5,16)             109.5582         estimate D2E/DX2                !
 ! A31   A(1,6,5)              112.5855         estimate D2E/DX2                !
 ! A32   A(1,6,17)             107.9883         estimate D2E/DX2                !
 ! A33   A(1,6,18)             109.3049         estimate D2E/DX2                !
 ! A34   A(5,6,17)             109.8065         estimate D2E/DX2                !
 ! A35   A(5,6,18)             109.9581         estimate D2E/DX2                !
 ! A36   A(17,6,18)            107.025          estimate D2E/DX2                !
 ! A37   A(5,7,19)             109.2358         estimate D2E/DX2                !
 ! A38   A(5,7,20)             109.4177         estimate D2E/DX2                !
 ! A39   A(5,7,21)             109.5017         estimate D2E/DX2                !
 ! A40   A(19,7,20)            109.4599         estimate D2E/DX2                !
 ! A41   A(19,7,21)            109.6104         estimate D2E/DX2                !
 ! A42   A(20,7,21)            109.6011         estimate D2E/DX2                !
 ! A43   A(4,8,22)             109.4957         estimate D2E/DX2                !
 ! A44   A(4,8,23)             109.4256         estimate D2E/DX2                !
 ! A45   A(4,8,24)             109.2352         estimate D2E/DX2                !
 ! A46   A(22,8,23)            109.6044         estimate D2E/DX2                !
 ! A47   A(22,8,24)            109.6059         estimate D2E/DX2                !
 ! A48   A(23,8,24)            109.4598         estimate D2E/DX2                !
 ! D1    D(6,1,2,3)            -60.249          estimate D2E/DX2                !
 ! D2    D(6,1,2,11)            60.7463         estimate D2E/DX2                !
 ! D3    D(6,1,2,12)           178.7363         estimate D2E/DX2                !
 ! D4    D(9,1,2,3)            178.7408         estimate D2E/DX2                !
 ! D5    D(9,1,2,11)           -60.2639         estimate D2E/DX2                !
 ! D6    D(9,1,2,12)            57.7261         estimate D2E/DX2                !
 ! D7    D(10,1,2,3)            60.7428         estimate D2E/DX2                !
 ! D8    D(10,1,2,11)         -178.2618         estimate D2E/DX2                !
 ! D9    D(10,1,2,12)          -60.2718         estimate D2E/DX2                !
 ! D10   D(2,1,6,5)             58.1718         estimate D2E/DX2                !
 ! D11   D(2,1,6,17)           -63.2217         estimate D2E/DX2                !
 ! D12   D(2,1,6,18)          -179.3201         estimate D2E/DX2                !
 ! D13   D(9,1,6,5)            179.073          estimate D2E/DX2                !
 ! D14   D(9,1,6,17)            57.6795         estimate D2E/DX2                !
 ! D15   D(9,1,6,18)           -58.4189         estimate D2E/DX2                !
 ! D16   D(10,1,6,5)           -63.0246         estimate D2E/DX2                !
 ! D17   D(10,1,6,17)          175.5819         estimate D2E/DX2                !
 ! D18   D(10,1,6,18)           59.4835         estimate D2E/DX2                !
 ! D19   D(1,2,3,4)             58.1262         estimate D2E/DX2                !
 ! D20   D(1,2,3,13)          -179.3649         estimate D2E/DX2                !
 ! D21   D(1,2,3,14)           -63.2737         estimate D2E/DX2                !
 ! D22   D(11,2,3,4)           -63.074          estimate D2E/DX2                !
 ! D23   D(11,2,3,13)           59.4349         estimate D2E/DX2                !
 ! D24   D(11,2,3,14)          175.5261         estimate D2E/DX2                !
 ! D25   D(12,2,3,4)           179.0307         estimate D2E/DX2                !
 ! D26   D(12,2,3,13)          -58.4604         estimate D2E/DX2                !
 ! D27   D(12,2,3,14)           57.6307         estimate D2E/DX2                !
 ! D28   D(2,3,4,5)            -51.8211         estimate D2E/DX2                !
 ! D29   D(2,3,4,8)           -172.3821         estimate D2E/DX2                !
 ! D30   D(2,3,4,15)            72.0183         estimate D2E/DX2                !
 ! D31   D(13,3,4,5)          -173.9619         estimate D2E/DX2                !
 ! D32   D(13,3,4,8)            65.4771         estimate D2E/DX2                !
 ! D33   D(13,3,4,15)          -50.1225         estimate D2E/DX2                !
 ! D34   D(14,3,4,5)            68.5366         estimate D2E/DX2                !
 ! D35   D(14,3,4,8)           -52.0243         estimate D2E/DX2                !
 ! D36   D(14,3,4,15)         -167.6239         estimate D2E/DX2                !
 ! D37   D(3,4,5,6)             47.7969         estimate D2E/DX2                !
 ! D38   D(3,4,5,7)            160.4029         estimate D2E/DX2                !
 ! D39   D(3,4,5,16)           -76.1114         estimate D2E/DX2                !
 ! D40   D(8,4,5,6)            160.4272         estimate D2E/DX2                !
 ! D41   D(8,4,5,7)            -86.9668         estimate D2E/DX2                !
 ! D42   D(8,4,5,16)            36.5189         estimate D2E/DX2                !
 ! D43   D(15,4,5,6)           -76.1004         estimate D2E/DX2                !
 ! D44   D(15,4,5,7)            36.5056         estimate D2E/DX2                !
 ! D45   D(15,4,5,16)          159.9913         estimate D2E/DX2                !
 ! D46   D(3,4,8,22)           -57.9708         estimate D2E/DX2                !
 ! D47   D(3,4,8,23)            62.1794         estimate D2E/DX2                !
 ! D48   D(3,4,8,24)          -178.0061         estimate D2E/DX2                !
 ! D49   D(5,4,8,22)          -177.5145         estimate D2E/DX2                !
 ! D50   D(5,4,8,23)           -57.3643         estimate D2E/DX2                !
 ! D51   D(5,4,8,24)            62.4501         estimate D2E/DX2                !
 ! D52   D(15,4,8,22)           58.4623         estimate D2E/DX2                !
 ! D53   D(15,4,8,23)          178.6125         estimate D2E/DX2                !
 ! D54   D(15,4,8,24)          -61.5731         estimate D2E/DX2                !
 ! D55   D(4,5,6,1)            -51.8667         estimate D2E/DX2                !
 ! D56   D(4,5,6,17)            68.4856         estimate D2E/DX2                !
 ! D57   D(4,5,6,18)          -174.0066         estimate D2E/DX2                !
 ! D58   D(7,5,6,1)           -172.4084         estimate D2E/DX2                !
 ! D59   D(7,5,6,17)           -52.056          estimate D2E/DX2                !
 ! D60   D(7,5,6,18)            65.4518         estimate D2E/DX2                !
 ! D61   D(16,5,6,1)            71.9853         estimate D2E/DX2                !
 ! D62   D(16,5,6,17)         -167.6624         estimate D2E/DX2                !
 ! D63   D(16,5,6,18)          -50.1546         estimate D2E/DX2                !
 ! D64   D(4,5,7,19)            62.4451         estimate D2E/DX2                !
 ! D65   D(4,5,7,20)           -57.365          estimate D2E/DX2                !
 ! D66   D(4,5,7,21)          -177.51           estimate D2E/DX2                !
 ! D67   D(6,5,7,19)          -178.0304         estimate D2E/DX2                !
 ! D68   D(6,5,7,20)            62.1595         estimate D2E/DX2                !
 ! D69   D(6,5,7,21)           -57.9856         estimate D2E/DX2                !
 ! D70   D(16,5,7,19)          -61.5919         estimate D2E/DX2                !
 ! D71   D(16,5,7,20)          178.598          estimate D2E/DX2                !
 ! D72   D(16,5,7,21)           58.453          estimate D2E/DX2                !
 --------------------------------------------------------------------------------
 Trust Radius=3.00D-01 FncErr=1.00D-07 GrdErr=1.00D-06
 Number of steps in this run=    144 maximum allowed number of steps=    144.
 GradGradGradGradGradGradGradGradGradGradGradGradGradGradGradGradGradGrad

                          Input orientation:                          
 ---------------------------------------------------------------------
 Center     Atomic      Atomic             Coordinates (Angstroms)
 Number     Number       Type             X           Y           Z
 ---------------------------------------------------------------------
      1          6           0        1.236109    0.185960    1.519593
      2          6           0       -0.055736    0.955285    1.819451
      3          6           0       -0.600505    1.568443    0.524907
      4          6           0       -0.877930    0.510609   -0.560205
      5          6           0        0.349083   -0.407296   -0.803463
      6          6           0        0.944873   -0.934717    0.515730
      7          7           0       -0.005037   -1.720342   -1.486177
      8          7           0       -1.201849    1.411938   -1.742720
      9          1           0        1.649553   -0.243720    2.463491
     10          1           0        2.007742    0.876130    1.103799
     11          1           0       -0.816720    0.271572    2.264464
     12          1           0        0.146244    1.758657    2.567976
     13          1           0       -1.534865    2.137203    0.750474
     14          1           0        0.149468    2.306813    0.150719
     15          1           0       -1.774550   -0.096297   -0.297436
     16          1           0        1.124634    0.125859   -1.399802
     17          1           0        0.232061   -1.649496    0.993889
     18          1           0        1.885959   -1.499860    0.309957
     19          1           0       -0.400289   -1.520597   -2.432696
     20          1           0       -0.714955   -2.229622   -0.912831
     21          1           0        0.854593   -2.306813   -1.581692
     22          1           0       -2.007742    2.030933   -1.498961
     23          1           0       -0.367152    1.997212   -1.972516
     24          1           0       -1.450607    0.821075   -2.567976
 ---------------------------------------------------------------------
                    Distance matrix (angstroms):
                    1          2          3          4          5
     1  C    0.000000
     2  C    1.533179   0.000000
     3  C    2.504758   1.532508   0.000000
     4  C    2.983306   2.556658   1.540599   0.000000
     5  C    2.556434   2.983317   2.563168   1.551543   0.000000
     6  C    1.532474   2.504599   2.941783   2.563048   1.540587
     7  N    3.769494   4.253084   3.900660   2.568367   1.521706
     8  N    4.253157   3.769770   2.351221   1.521729   2.568503
     9  H    1.116470   2.181837   3.479196   4.012471   3.520081
    10  H    1.115633   2.185490   2.759958   3.351062   2.834780
    11  H    2.185468   1.115615   2.180523   2.835426   3.351438
    12  H    2.181809   1.116464   2.183563   3.520238   4.012368
    13  H    3.475225   2.174273   1.116869   2.189806   3.526819
    14  H    2.748203   2.157175   1.116990   2.187992   2.883868
    15  H    3.527794   2.922560   2.196813   1.114141   2.205131
    16  H    2.922141   3.527720   2.960010   2.205271   1.114161
    17  H    2.157168   2.747592   3.356820   2.883287   2.187974
    18  H    2.174285   3.475124   3.955147   3.526790   2.189837
    19  H    4.605510   4.932491   4.281316   2.803598   2.110781
    20  H    3.944410   4.247772   4.062695   2.767629   2.113057
    21  H    3.997179   4.799766   4.644640   3.461638   2.114083
    22  H    4.799809   3.997400   2.508038   2.114030   3.461691
    23  H    4.248047   3.944820   2.544684   2.113174   2.767912
    24  H    4.932548   4.605778   3.293502   2.110804   2.803798
                    6          7          8          9         10
     6  C    0.000000
     7  N    2.350993   0.000000
     8  N    3.900744   3.362938   0.000000
     9  H    2.183535   4.529675   5.344521   0.000000
    10  H    2.180523   4.183410   4.323336   1.797533   0.000000
    11  H    2.759785   4.323640   4.184051   2.527378   3.112912
    12  H    3.479050   5.344387   4.529864   2.506066   2.527418
    13  H    3.954857   4.714195   2.617809   4.329404   3.776931
    14  H    3.357591   4.349860   2.492382   3.755581   2.531481
    15  H    2.959637   2.679889   2.166011   4.401015   4.149073
    16  H    2.196907   2.166120   2.680320   3.916269   2.758769
    17  H    1.116981   2.492381   4.349426   2.478955   3.089322
    18  H    1.116858   2.617360   4.714510   2.504293   2.508056
    19  H    3.293316   1.044998   3.117423   5.459388   4.904050
    20  H    2.544129   1.045024   3.766529   4.575397   4.596256
    21  H    2.507983   1.045005   4.252528   4.609970   4.321197
    22  H    4.644566   4.252418   1.045006   5.852425   4.922605
    23  H    4.063125   3.766678   1.045022   5.363491   4.044831
    24  H    4.281398   3.117493   1.045011   6.005035   5.044318
                   11         12         13         14         15
    11  H    0.000000
    12  H    1.797454   0.000000
    13  H    2.507684   2.504543   0.000000
    14  H    3.089279   2.478632   1.795954   0.000000
    15  H    2.759728   3.916745   2.478727   3.110888   0.000000
    16  H    4.149329   4.400743   3.967635   2.848091   3.109635
    17  H    2.530772   3.755079   4.185734   4.046003   2.847180
    18  H    3.776578   4.329341   5.012417   4.187065   3.967145
    19  H    5.044660   6.004908   4.979893   4.650305   2.911453
    20  H    4.044939   5.363213   4.744259   4.738946   2.460189
    21  H    4.922832   5.852311   5.558578   4.978353   3.667163
    22  H    4.321719   4.610181   2.301057   2.729672   2.454210
    23  H    4.596949   4.575648   2.966113   2.207006   3.028109
    24  H    4.904716   5.459578   3.570911   3.486970   2.470195
                   16         17         18         19         20
    16  H    0.000000
    17  H    3.111001   0.000000
    18  H    2.479083   1.795977   0.000000
    19  H    2.470441   3.486828   3.570645   0.000000
    20  H    3.028121   2.206574   2.965218   1.706377   0.000000
    21  H    2.454363   2.730060   2.300701   1.707944   1.707868
    22  H    3.667549   4.977607   5.558740   4.008632   4.490788
    23  H    2.460770   4.738892   4.745072   3.547935   4.371501
    24  H    2.912013   4.649944   4.980152   2.569999   3.547878
                   21         22         23         24
    21  H    0.000000
    22  H    5.197677   0.000000
    23  H    4.491106   1.707901   0.000000
    24  H    4.008789   1.707908   1.706384   0.000000
 Stoichiometry    C6H16N2(2+)
 Framework group  C1[X(C6H16N2)]
 Deg. of freedom    66
 Full point group                 C1      NOp   1
 Largest Abelian subgroup         C1      NOp   1
 Largest concise Abelian subgroup C1      NOp   1
                         Standard orientation:                         
 ---------------------------------------------------------------------
 Center     Atomic      Atomic             Coordinates (Angstroms)
 Number     Number       Type             X           Y           Z
 ---------------------------------------------------------------------
      1          6           0        1.922352    0.649974    0.406174
      2          6           0        1.922301   -0.650475   -0.405905
      3          6           0        0.673194   -1.469657   -0.063484
      4          6           0       -0.632923   -0.699286   -0.335568
      5          6           0       -0.632632    0.699503    0.335756
      6          6           0        0.673630    1.469402    0.063092
      7          7           0       -1.645896    1.659960   -0.269561
      8          7           0       -1.646560   -1.659476    0.269605
      9          1           0        2.842082    1.240091    0.177342
     10          1           0        1.937935    0.422162    1.498189
     11          1           0        1.938482   -0.422659   -1.497891
     12          1           0        2.841780   -1.240837   -0.176726
     13          1           0        0.683654   -2.420858   -0.648723
     14          1           0        0.729603   -1.749523    1.016405
     15          1           0       -0.814240   -0.607457   -1.431014
     16          1           0       -0.813760    0.607920    1.431273
     17          1           0        0.730122    1.748384   -1.017012
     18          1           0        0.684370    2.421024    0.647618
     19          1           0       -2.608624    1.279012   -0.127949
     20          1           0       -1.459125    1.762669   -1.292617
     21          1           0       -1.565267    2.591652    0.196791
     22          1           0       -1.566187   -2.591091   -0.196947
     23          1           0       -1.460006   -1.762427    1.292673
     24          1           0       -2.609165   -1.278221    0.127889
 ---------------------------------------------------------------------
 Rotational constants (GHZ):      2.2965853      1.9501455      1.1715390
 Standard basis: 6-311++G(d,p) (5D, 7F)
 There are   296 symmetry adapted cartesian basis functions of A   symmetry.
 There are   288 symmetry adapted basis functions of A   symmetry.
   288 basis functions,   432 primitive gaussians,   296 cartesian basis functions
    32 alpha electrons       32 beta electrons
       nuclear repulsion energy       436.3771202791 Hartrees.
 NAtoms=   24 NActive=   24 NUniq=   24 SFac= 1.00D+00 NAtFMM=   60 NAOKFM=F Big=F
 Integral buffers will be    131072 words long.
 Raffenetti 2 integral format.
 Two-electron integral symmetry is turned on.
 One-electron integrals computed using PRISM.
 NBasis=   288 RedAO= T EigKep=  3.66D-06  NBF=   288
 NBsUse=   288 1.00D-06 EigRej= -1.00D+00 NBFU=   288
 ExpMin= 3.60D-02 ExpMax= 6.29D+03 ExpMxC= 9.49D+02 IAcc=3 IRadAn=         5 AccDes= 0.00D+00
 Harris functional with IExCor=  402 and IRadAn=       5 diagonalized for initial guess.
 HarFok:  IExCor=  402 AccDes= 0.00D+00 IRadAn=         5 IDoV= 1 UseB2=F ITyADJ=14
 ICtDFT=  3500011 ScaDFX=  1.000000  1.000000  1.000000  1.000000
 FoFCou: FMM=F IPFlag=           0 FMFlag=      100000 FMFlg1=           0
         NFxFlg=           0 DoJE=T BraDBF=F KetDBF=T FulRan=T
         wScrn=  0.000000 ICntrl=     500 IOpCl=  0 I1Cent=   200000004 NGrid=           0
         NMat0=    1 NMatS0=      1 NMatT0=    0 NMatD0=    1 NMtDS0=    0 NMtDT0=    0
 Petite list used in FoFCou.
 Keep R1 ints in memory in canonical form, NReq=879354982.
 Requested convergence on RMS density matrix=1.00D-08 within 128 cycles.
 Requested convergence on MAX density matrix=1.00D-06.
 Requested convergence on             energy=1.00D-06.
 No special actions if energy rises.
 SCF Done:  E(RB3LYP) =  -347.250442787     A.U. after   12 cycles
            NFock= 12  Conv=0.24D-08     -V/T= 2.0057

 **********************************************************************

            Population analysis using the SCF density.

 **********************************************************************

 Orbital symmetries:
       Occupied  (A) (A) (A) (A) (A) (A) (A) (A) (A) (A) (A) (A)
                 (A) (A) (A) (A) (A) (A) (A) (A) (A) (A) (A) (A)
                 (A) (A) (A) (A) (A) (A) (A) (A)
       Virtual   (A) (A) (A) (A) (A) (A) (A) (A) (A) (A) (A) (A)
                 (A) (A) (A) (A) (A) (A) (A) (A) (A) (A) (A) (A)
                 (A) (A) (A) (A) (A) (A) (A) (A) (A) (A) (A) (A)
                 (A) (A) (A) (A) (A) (A) (A) (A) (A) (A) (A) (A)
                 (A) (A) (A) (A) (A) (A) (A) (A) (A) (A) (A) (A)
                 (A) (A) (A) (A) (A) (A) (A) (A) (A) (A) (A) (A)
                 (A) (A) (A) (A) (A) (A) (A) (A) (A) (A) (A) (A)
                 (A) (A) (A) (A) (A) (A) (A) (A) (A) (A) (A) (A)
                 (A) (A) (A) (A) (A) (A) (A) (A) (A) (A) (A) (A)
                 (A) (A) (A) (A) (A) (A) (A) (A) (A) (A) (A) (A)
                 (A) (A) (A) (A) (A) (A) (A) (A) (A) (A) (A) (A)
                 (A) (A) (A) (A) (A) (A) (A) (A) (A) (A) (A) (A)
                 (A) (A) (A) (A) (A) (A) (A) (A) (A) (A) (A) (A)
                 (A) (A) (A) (A) (A) (A) (A) (A) (A) (A) (A) (A)
                 (A) (A) (A) (A) (A) (A) (A) (A) (A) (A) (A) (A)
                 (A) (A) (A) (A) (A) (A) (A) (A) (A) (A) (A) (A)
                 (A) (A) (A) (A) (A) (A) (A) (A) (A) (A) (A) (A)
                 (A) (A) (A) (A) (A) (A) (A) (A) (A) (A) (A) (A)
                 (A) (A) (A) (A) (A) (A) (A) (A) (A) (A) (A) (A)
                 (A) (A) (A) (A) (A) (A) (A) (A) (A) (A) (A) (A)
                 (A) (A) (A) (A) (A) (A) (A) (A) (A) (A) (A) (A)
                 (A) (A) (A) (A)
 The electronic state is 1-A.
 Alpha  occ. eigenvalues --  -14.78317 -14.78316 -10.58876 -10.58857 -10.48891
 Alpha  occ. eigenvalues --  -10.48891 -10.44652 -10.44631  -1.35203  -1.33648
 Alpha  occ. eigenvalues --   -1.15456  -1.07121  -1.05967  -0.96473  -0.96424
 Alpha  occ. eigenvalues --   -0.93099  -0.92602  -0.91257  -0.89016  -0.84818
 Alpha  occ. eigenvalues --   -0.84705  -0.82448  -0.77338  -0.74115  -0.73939
 Alpha  occ. eigenvalues --   -0.70799  -0.69650  -0.69094  -0.65750  -0.61631
 Alpha  occ. eigenvalues --   -0.61250  -0.60966
 Alpha virt. eigenvalues --   -0.34909  -0.31533  -0.29021  -0.28802  -0.26571
 Alpha virt. eigenvalues --   -0.25243  -0.25240  -0.23641  -0.22781  -0.22442
 Alpha virt. eigenvalues --   -0.21740  -0.20749  -0.19853  -0.19417  -0.18536
 Alpha virt. eigenvalues --   -0.17479  -0.17440  -0.16799  -0.16322  -0.15880
 Alpha virt. eigenvalues --   -0.14498  -0.13806  -0.13705  -0.13516  -0.12765
 Alpha virt. eigenvalues --   -0.12624  -0.12188  -0.11365  -0.10829  -0.10819
 Alpha virt. eigenvalues --   -0.10094  -0.10064  -0.09208  -0.08751  -0.08465
 Alpha virt. eigenvalues --   -0.08389  -0.07613  -0.07134  -0.06873  -0.06622
 Alpha virt. eigenvalues --   -0.06470  -0.05623  -0.05235  -0.05170  -0.04307
 Alpha virt. eigenvalues --   -0.03974  -0.03581  -0.03253  -0.03031  -0.02526
 Alpha virt. eigenvalues --   -0.01949  -0.01914  -0.01626  -0.01037  -0.00217
 Alpha virt. eigenvalues --    0.00456   0.00562   0.01277   0.01975   0.02098
 Alpha virt. eigenvalues --    0.03221   0.04096   0.04866   0.06772   0.07147
 Alpha virt. eigenvalues --    0.07179   0.09362   0.09872   0.10976   0.10998
 Alpha virt. eigenvalues --    0.11386   0.14443   0.17998   0.18040   0.19286
 Alpha virt. eigenvalues --    0.19865   0.21074   0.22999   0.24297   0.25141
 Alpha virt. eigenvalues --    0.25959   0.26801   0.26980   0.27295   0.28543
 Alpha virt. eigenvalues --    0.30075   0.32996   0.33801   0.34479   0.36127
 Alpha virt. eigenvalues --    0.36641   0.36859   0.38069   0.40010   0.40708
 Alpha virt. eigenvalues --    0.41592   0.42023   0.43210   0.43733   0.45385
 Alpha virt. eigenvalues --    0.46110   0.46601   0.47782   0.48066   0.49826
 Alpha virt. eigenvalues --    0.50049   0.50910   0.51111   0.53000   0.55554
 Alpha virt. eigenvalues --    0.58675   0.58842   0.61797   0.64738   0.67541
 Alpha virt. eigenvalues --    0.68308   0.74275   0.75374   0.76701   0.80121
 Alpha virt. eigenvalues --    0.84963   0.87053   0.88941   0.90373   0.90926
 Alpha virt. eigenvalues --    0.94817   0.99445   1.04494   1.06007   1.07361
 Alpha virt. eigenvalues --    1.07430   1.08668   1.14428   1.17812   1.19226
 Alpha virt. eigenvalues --    1.20173   1.20320   1.24872   1.25234   1.26064
 Alpha virt. eigenvalues --    1.28194   1.29297   1.30736   1.30990   1.32178
 Alpha virt. eigenvalues --    1.34439   1.35529   1.35727   1.36581   1.38157
 Alpha virt. eigenvalues --    1.38471   1.40709   1.41003   1.42887   1.42959
 Alpha virt. eigenvalues --    1.44012   1.47821   1.50888   1.52241   1.53003
 Alpha virt. eigenvalues --    1.53020   1.54785   1.54856   1.55908   1.60338
 Alpha virt. eigenvalues --    1.60496   1.66227   1.66407   1.70328   1.72131
 Alpha virt. eigenvalues --    1.74594   1.76108   1.76838   1.81536   1.84640
 Alpha virt. eigenvalues --    1.85296   1.86579   1.89382   1.91200   1.93071
 Alpha virt. eigenvalues --    1.97007   1.97229   2.00370   2.01289   2.03377
 Alpha virt. eigenvalues --    2.03402   2.08192   2.09135   2.13883   2.15713
 Alpha virt. eigenvalues --    2.19312   2.20334   2.21651   2.25728   2.26658
 Alpha virt. eigenvalues --    2.30630   2.31040   2.32636   2.32802   2.35078
 Alpha virt. eigenvalues --    2.37615   2.38784   2.40513   2.41011   2.41366
 Alpha virt. eigenvalues --    2.46057   2.46953   2.48550   2.49531   2.51635
 Alpha virt. eigenvalues --    2.55640   2.56192   2.57657   2.59915   2.60233
 Alpha virt. eigenvalues --    2.61731   2.62304   2.62867   2.64554   2.66736
 Alpha virt. eigenvalues --    2.68536   2.72623   2.74028   2.74716   2.78192
 Alpha virt. eigenvalues --    2.80543   2.87433   2.91422   3.04860   3.14062
 Alpha virt. eigenvalues --    3.15564   3.26257   3.45133   3.48294   3.51113
 Alpha virt. eigenvalues --    3.54799   3.65336   3.72055   3.82367   3.89949
 Alpha virt. eigenvalues --    3.92755   4.00921   4.23989   4.24407   4.25001
 Alpha virt. eigenvalues --    4.26786   4.35358   4.35779  23.41352  23.41471
 Alpha virt. eigenvalues --   23.54392  23.57259  23.63399  23.63825  35.13546
 Alpha virt. eigenvalues --   35.15625
          Condensed to atoms (all electrons):
               1          2          3          4          5          6
     1  C    5.812209   0.131951  -0.254040   0.174065   0.062862  -0.228137
     2  C    0.131951   5.812967  -0.228729   0.063699   0.173630  -0.254392
     3  C   -0.254040  -0.228729   6.516703  -0.702416   0.131471   0.353956
     4  C    0.174065   0.063699  -0.702416   9.212791  -2.696225   0.131796
     5  C    0.062862   0.173630   0.131471  -2.696225   9.215666  -0.702793
     6  C   -0.228137  -0.254392   0.353956   0.131796  -0.702793   6.516424
     7  N    0.005695  -0.029648   0.033857  -0.183772   0.090544  -0.135730
     8  N   -0.029662   0.005705  -0.135763   0.091668  -0.184612   0.033802
     9  H    0.421276  -0.030044   0.002042   0.004145   0.001084  -0.053556
    10  H    0.488255  -0.031543  -0.053506   0.007910   0.028588  -0.082922
    11  H   -0.031488   0.488265  -0.082962   0.028382   0.008096  -0.053541
    12  H   -0.030063   0.421308  -0.053531   0.001058   0.004146   0.002041
    13  H    0.015475  -0.013186   0.417210  -0.048648   0.011886   0.017552
    14  H   -0.028974  -0.085521   0.350027   0.262924  -0.183713  -0.006292
    15  H    0.000060  -0.009161  -0.121835   0.554616  -0.113901  -0.092144
    16  H   -0.009270   0.000047  -0.092056  -0.114439   0.555308  -0.121907
    17  H   -0.085551  -0.029072  -0.006192  -0.184213   0.263766   0.349914
    18  H   -0.013150   0.015485   0.017520   0.012164  -0.049191   0.417357
    19  H   -0.003290  -0.002505   0.009784  -0.003899  -0.019417   0.035942
    20  H    0.001594   0.000968  -0.004606   0.007944   0.027103  -0.012833
    21  H    0.002197   0.001795   0.002075   0.024588  -0.027206   0.012958
    22  H    0.001789   0.002184   0.012971  -0.027101   0.024491   0.002089
    23  H    0.000960   0.001599  -0.012858   0.027155   0.007936  -0.004584
    24  H   -0.002499  -0.003301   0.035947  -0.019414  -0.003919   0.009770
               7          8          9         10         11         12
     1  C    0.005695  -0.029662   0.421276   0.488255  -0.031488  -0.030063
     2  C   -0.029648   0.005705  -0.030044  -0.031543   0.488265   0.421308
     3  C    0.033857  -0.135763   0.002042  -0.053506  -0.082962  -0.053531
     4  C   -0.183772   0.091668   0.004145   0.007910   0.028382   0.001058
     5  C    0.090544  -0.184612   0.001084   0.028588   0.008096   0.004146
     6  C   -0.135730   0.033802  -0.053556  -0.082922  -0.053541   0.002041
     7  N    6.341552   0.024932  -0.003929  -0.005106  -0.004456   0.000312
     8  N    0.024932   6.341322   0.000315  -0.004455  -0.005096  -0.003928
     9  H   -0.003929   0.000315   0.409264   0.005088   0.001537  -0.006270
    10  H   -0.005106  -0.004455   0.005088   0.460063   0.001492   0.001542
    11  H   -0.004456  -0.005096   0.001537   0.001492   0.460038   0.005095
    12  H    0.000312  -0.003928  -0.006270   0.001542   0.005095   0.409282
    13  H   -0.000721  -0.031096  -0.000295  -0.002798  -0.007934  -0.010036
    14  H   -0.004439   0.000221   0.000450  -0.003139   0.004389  -0.002392
    15  H    0.002303  -0.005640   0.000110   0.001568   0.006290   0.001146
    16  H   -0.005785   0.002301   0.001147   0.006295   0.001576   0.000108
    17  H    0.000095  -0.004436  -0.002395   0.004379  -0.003142   0.000448
    18  H   -0.031027  -0.000733  -0.010037  -0.007911  -0.002799  -0.000293
    19  H    0.318559  -0.001230  -0.000269   0.000025  -0.000358   0.000114
    20  H    0.322845   0.001455   0.000451  -0.000256   0.000664  -0.000209
    21  H    0.314004   0.003327   0.000112  -0.000012  -0.000465  -0.000151
    22  H    0.003329   0.313972  -0.000151  -0.000464  -0.000014   0.000112
    23  H    0.001456   0.322817  -0.000209   0.000664  -0.000256   0.000451
    24  H   -0.001235   0.318581   0.000114  -0.000358   0.000025  -0.000268
              13         14         15         16         17         18
     1  C    0.015475  -0.028974   0.000060  -0.009270  -0.085551  -0.013150
     2  C   -0.013186  -0.085521  -0.009161   0.000047  -0.029072   0.015485
     3  C    0.417210   0.350027  -0.121835  -0.092056  -0.006192   0.017520
     4  C   -0.048648   0.262924   0.554616  -0.114439  -0.184213   0.012164
     5  C    0.011886  -0.183713  -0.113901   0.555308   0.263766  -0.049191
     6  C    0.017552  -0.006292  -0.092144  -0.121907   0.349914   0.417357
     7  N   -0.000721  -0.004439   0.002303  -0.005785   0.000095  -0.031027
     8  N   -0.031096   0.000221  -0.005640   0.002301  -0.004436  -0.000733
     9  H   -0.000295   0.000450   0.000110   0.001147  -0.002395  -0.010037
    10  H   -0.002798  -0.003139   0.001568   0.006295   0.004379  -0.007911
    11  H   -0.007934   0.004389   0.006290   0.001576  -0.003142  -0.002799
    12  H   -0.010036  -0.002392   0.001146   0.000108   0.000448  -0.000293
    13  H    0.510631  -0.045815  -0.040256  -0.007685  -0.003699   0.002810
    14  H   -0.045815   0.527106   0.027539   0.011033   0.000278  -0.003696
    15  H   -0.040256   0.027539   0.492004   0.023724   0.011003  -0.007678
    16  H   -0.007685   0.011033   0.023724   0.491996   0.027552  -0.040274
    17  H   -0.003699   0.000278   0.011003   0.027552   0.527043  -0.045798
    18  H    0.002810  -0.003696  -0.007678  -0.040274  -0.045798   0.510657
    19  H    0.000233  -0.000434  -0.004884  -0.012421  -0.000034   0.002331
    20  H    0.001136   0.000164  -0.000236  -0.000583  -0.006673   0.002400
    21  H    0.000102  -0.000472  -0.001668  -0.010486  -0.005608   0.011260
    22  H    0.011257  -0.005617  -0.010486  -0.001679  -0.000472   0.000103
    23  H    0.002398  -0.006675  -0.000585  -0.000239   0.000164   0.001136
    24  H    0.002319  -0.000025  -0.012403  -0.004867  -0.000433   0.000231
              19         20         21         22         23         24
     1  C   -0.003290   0.001594   0.002197   0.001789   0.000960  -0.002499
     2  C   -0.002505   0.000968   0.001795   0.002184   0.001599  -0.003301
     3  C    0.009784  -0.004606   0.002075   0.012971  -0.012858   0.035947
     4  C   -0.003899   0.007944   0.024588  -0.027101   0.027155  -0.019414
     5  C   -0.019417   0.027103  -0.027206   0.024491   0.007936  -0.003919
     6  C    0.035942  -0.012833   0.012958   0.002089  -0.004584   0.009770
     7  N    0.318559   0.322845   0.314004   0.003329   0.001456  -0.001235
     8  N   -0.001230   0.001455   0.003327   0.313972   0.322817   0.318581
     9  H   -0.000269   0.000451   0.000112  -0.000151  -0.000209   0.000114
    10  H    0.000025  -0.000256  -0.000012  -0.000464   0.000664  -0.000358
    11  H   -0.000358   0.000664  -0.000465  -0.000014  -0.000256   0.000025
    12  H    0.000114  -0.000209  -0.000151   0.000112   0.000451  -0.000268
    13  H    0.000233   0.001136   0.000102   0.011257   0.002398   0.002319
    14  H   -0.000434   0.000164  -0.000472  -0.005617  -0.006675  -0.000025
    15  H   -0.004884  -0.000236  -0.001668  -0.010486  -0.000585  -0.012403
    16  H   -0.012421  -0.000583  -0.010486  -0.001679  -0.000239  -0.004867
    17  H   -0.000034  -0.006673  -0.005608  -0.000472   0.000164  -0.000433
    18  H    0.002331   0.002400   0.011260   0.000103   0.001136   0.000231
    19  H    0.379329  -0.019555  -0.005001   0.000462   0.001289   0.000080
    20  H   -0.019555   0.319912  -0.009302  -0.000351  -0.000564   0.001288
    21  H   -0.005001  -0.009302   0.323465   0.000023  -0.000351   0.000460
    22  H    0.000462  -0.000351   0.000023   0.323474  -0.009294  -0.005016
    23  H    0.001289  -0.000564  -0.000351  -0.009294   0.319890  -0.019550
    24  H    0.000080   0.001288   0.000460  -0.005016  -0.019550   0.379313
 Mulliken charges:
               1
     1  C   -0.402262
     2  C   -0.402499
     3  C   -0.135069
     4  C   -0.624775
     5  C   -0.625601
     6  C   -0.134768
     7  N   -0.053636
     8  N   -0.053766
     9  H    0.260020
    10  H    0.186602
    11  H    0.186660
    12  H    0.259980
    13  H    0.219161
    14  H    0.193074
    15  H    0.300515
    16  H    0.300604
    17  H    0.193075
    18  H    0.219132
    19  H    0.325151
    20  H    0.367244
    21  H    0.364356
    22  H    0.364393
    23  H    0.367249
    24  H    0.325161
 Sum of Mulliken charges =   2.00000
 Mulliken charges with hydrogens summed into heavy atoms:
               1
     1  C    0.044361
     2  C    0.044141
     3  C    0.277165
     4  C   -0.324260
     5  C   -0.324997
     6  C    0.277439
     7  N    1.003115
     8  N    1.003037
 Electronic spatial extent (au):  <R**2>=           1059.6815
 Charge=              2.0000 electrons
 Dipole moment (field-independent basis, Debye):
    X=             -9.9795    Y=              0.0013    Z=              0.0000  Tot=              9.9796
 Quadrupole moment (field-independent basis, Debye-Ang):
   XX=            -14.6307   YY=            -15.1795   ZZ=            -40.7423
   XY=              0.0018   XZ=             -0.0010   YZ=             -2.7672
 Traceless Quadrupole moment (field-independent basis, Debye-Ang):
   XX=              8.8868   YY=              8.3380   ZZ=            -17.2248
   XY=              0.0018   XZ=             -0.0010   YZ=             -2.7672
 Octapole moment (field-independent basis, Debye-Ang**2):
  XXX=            -54.7493  YYY=              0.0227  ZZZ=              0.0013  XYY=            -44.9137
  XXY=             -0.0110  XXZ=              0.0034  XZZ=            -11.8376  YZZ=             -0.0010
  YYZ=             -0.0016  XYZ=              5.9481
 Hexadecapole moment (field-independent basis, Debye-Ang**3):
 XXXX=           -449.0095 YYYY=           -360.7832 ZZZZ=           -105.4622 XXXY=              0.0300
 XXXZ=             -0.0036 YYYX=             -0.0059 YYYZ=             -0.0239 ZZZX=             -0.0088
 ZZZY=            -16.6486 XXYY=           -105.6648 XXZZ=           -116.9745 YYZZ=            -91.5190
 XXYZ=             -9.0393 YYXZ=              0.0006 ZZXY=              0.0042
 N-N= 4.363771202791D+02 E-N=-1.655300512394D+03  KE= 3.452897445577D+02

 **********************************************************************

            Electrostatic Properties Using The SCF Density

 **********************************************************************

       Atomic Center    1 is at   1.922352  0.649974  0.406174
       Atomic Center    2 is at   1.922301 -0.650475 -0.405905
       Atomic Center    3 is at   0.673194 -1.469657 -0.063484
       Atomic Center    4 is at  -0.632923 -0.699286 -0.335568
       Atomic Center    5 is at  -0.632632  0.699503  0.335756
       Atomic Center    6 is at   0.673630  1.469402  0.063092
       Atomic Center    7 is at  -1.645896  1.659960 -0.269561
       Atomic Center    8 is at  -1.646560 -1.659476  0.269605
       Atomic Center    9 is at   2.842082  1.240091  0.177342
       Atomic Center   10 is at   1.937935  0.422162  1.498189
       Atomic Center   11 is at   1.938482 -0.422659 -1.497891
       Atomic Center   12 is at   2.841780 -1.240837 -0.176726
       Atomic Center   13 is at   0.683654 -2.420858 -0.648723
       Atomic Center   14 is at   0.729603 -1.749523  1.016405
       Atomic Center   15 is at  -0.814240 -0.607457 -1.431014
       Atomic Center   16 is at  -0.813760  0.607920  1.431273
       Atomic Center   17 is at   0.730122  1.748384 -1.017012
       Atomic Center   18 is at   0.684370  2.421024  0.647618
       Atomic Center   19 is at  -2.608624  1.279012 -0.127949
       Atomic Center   20 is at  -1.459125  1.762669 -1.292617
       Atomic Center   21 is at  -1.565267  2.591652  0.196791
       Atomic Center   22 is at  -1.566187 -2.591091 -0.196947
       Atomic Center   23 is at  -1.460006 -1.762427  1.292673
       Atomic Center   24 is at  -2.609165 -1.278221  0.127889
 -----------------------------------------------------------------

              Electrostatic Properties (Atomic Units)

 -----------------------------------------------------------------
    Center     Electric         -------- Electric Field --------
               Potential          X             Y             Z
 -----------------------------------------------------------------
    1 Atom    -14.498353      0.005656     -0.000738      0.000381
    2 Atom    -14.498355      0.005655      0.000737     -0.000381
    3 Atom    -14.456972      0.009698     -0.001572     -0.001707
    4 Atom    -14.357098      0.014137      0.002956     -0.004619
    5 Atom    -14.357104      0.014135     -0.002958      0.004618
    6 Atom    -14.456975      0.009700      0.001567      0.001712
    7 Atom    -17.927792      0.000572     -0.002992      0.002220
    8 Atom    -17.927783      0.000577      0.002993     -0.002218
    9 Atom     -0.857003      0.000664      0.002577      0.001163
   10 Atom     -0.854058      0.002631      0.000033      0.005099
   11 Atom     -0.854076      0.002629     -0.000025     -0.005107
   12 Atom     -0.857006      0.000660     -0.002589     -0.001159
   13 Atom     -0.809179     -0.002601     -0.003231     -0.002388
   14 Atom     -0.807136     -0.000698     -0.001457      0.005610
   15 Atom     -0.740122     -0.003898     -0.003747     -0.005062
   16 Atom     -0.740115     -0.003895      0.003753      0.005046
   17 Atom     -0.807123     -0.000694      0.001460     -0.005614
   18 Atom     -0.809170     -0.002601      0.003237      0.002391
   19 Atom     -0.614118     -0.009689      0.011234     -0.003713
   20 Atom     -0.610954     -0.002215      0.005689     -0.005149
   21 Atom     -0.611528     -0.002865      0.007280      0.000227
   22 Atom     -0.611524     -0.002864     -0.007284     -0.000221
   23 Atom     -0.610949     -0.002209     -0.005687      0.005150
   24 Atom     -0.614106     -0.009681     -0.011227      0.003715
 -----------------------------------------------------------------
 -----------------------------------------------------
    Center         ---- Electric Field Gradient ----
                     XX            YY            ZZ
 -----------------------------------------------------
    1 Atom     -500.297258   -500.276709   -500.230291
    2 Atom     -500.297462   -500.276658   -500.230210
    3 Atom     -500.446587   -500.379118   -500.329626
    4 Atom     -500.610532   -500.657363   -500.453688
    5 Atom     -500.610395   -500.657632   -500.453697
    6 Atom     -500.446728   -500.379131   -500.329888
    7 Atom     -812.481283   -812.507212   -812.490149
    8 Atom     -812.481171   -812.507052   -812.490012
    9 Atom       -1.889743     -1.745743     -1.647319
   10 Atom       -1.661118     -1.677840     -2.029330
   11 Atom       -1.661141     -1.677879     -2.029388
   12 Atom       -1.889616     -1.745853     -1.647379
   13 Atom       -1.653055     -1.913305     -1.742383
   14 Atom       -1.671550     -1.673454     -2.016161
   15 Atom       -1.658887     -1.659429     -2.005102
   16 Atom       -1.658775     -1.659328     -2.005015
   17 Atom       -1.671578     -1.673337     -2.016343
   18 Atom       -1.653076     -1.913600     -1.742150
   19 Atom       -1.917636     -1.605041     -1.543430
   20 Atom       -1.521778     -1.512932     -1.930322
   21 Atom       -1.494925     -1.838827     -1.581823
   22 Atom       -1.494907     -1.838774     -1.581895
   23 Atom       -1.521728     -1.512926     -1.930326
   24 Atom       -1.917454     -1.605101     -1.543411
 -----------------------------------------------------
 -----------------------------------------------------
    Center         ---- Electric Field Gradient ----
                     XY            XZ            YZ
 -----------------------------------------------------
    1 Atom        0.110322     -0.044380     -0.016713
    2 Atom       -0.110364      0.044341     -0.016812
    3 Atom        0.157428     -0.052047      0.044361
    4 Atom       -0.335421      0.220239      0.107932
    5 Atom        0.335375     -0.220212      0.107994
    6 Atom       -0.157385      0.052168      0.044386
    7 Atom       -0.016621     -0.001254      0.042261
    8 Atom        0.016579      0.001281      0.042245
    9 Atom       -0.163203      0.065292      0.042883
   10 Atom        0.003220      0.000474      0.079241
   11 Atom       -0.003265     -0.000270      0.079255
   12 Atom        0.163233     -0.065376      0.042967
   13 Atom       -0.005074     -0.005654     -0.172669
   14 Atom        0.005309     -0.006699      0.090642
   15 Atom       -0.002480     -0.066115      0.033423
   16 Atom        0.002498      0.066048      0.033331
   17 Atom       -0.005300      0.006733      0.090372
   18 Atom        0.005006      0.005603     -0.172558
   19 Atom       -0.154264      0.056293      0.022931
   20 Atom       -0.005951      0.078906      0.038047
   21 Atom       -0.030201     -0.016282     -0.176009
   22 Atom        0.030104      0.016240     -0.176061
   23 Atom        0.005964     -0.078828      0.038151
   24 Atom        0.154350     -0.056318      0.022964
 -----------------------------------------------------
 -----------------------------------------------------
    Center         ---- Electric Field Gradient ----
                   ----       Eigenvalues       ----
 -----------------------------------------------------
    1 Atom     -500.400642   -500.250986   -500.152630
    2 Atom     -500.400750   -500.250978   -500.152602
    3 Atom     -500.591689   -500.311841   -500.251800
    4 Atom     -501.058471   -500.420469   -500.242643
    5 Atom     -501.058504   -500.420514   -500.242707
    6 Atom     -500.591804   -500.312033   -500.251909
    7 Atom     -812.544167   -812.483513   -812.450965
    8 Atom     -812.543983   -812.483411   -812.450841
    9 Atom       -2.012817     -1.639372     -1.630616
   10 Atom       -2.046369     -1.664212     -1.657708
   11 Atom       -2.046432     -1.664240     -1.657736
   12 Atom       -2.012840     -1.639384     -1.630624
   13 Atom       -2.020650     -1.653162     -1.634931
   14 Atom       -2.038823     -1.671981     -1.650362
   15 Atom       -2.020213     -1.661393     -1.641813
   16 Atom       -2.020085     -1.661304     -1.641730
   17 Atom       -2.038863     -1.672004     -1.650391
   18 Atom       -2.020694     -1.653185     -1.634946
   19 Atom       -1.989231     -1.541737     -1.535138
   20 Atom       -1.948435     -1.509961     -1.506635
   21 Atom       -1.930950     -1.493150     -1.491475
   22 Atom       -1.930948     -1.493153     -1.491475
   23 Atom       -1.948428     -1.509937     -1.506616
   24 Atom       -1.989155     -1.541702     -1.535109
 -----------------------------------------------------
 -----------------------------------------------------
    Center         ---- Electric Field Gradient ----
                       ( tensor representation )
                   3XX-RR        3YY-RR        3ZZ-RR
 -----------------------------------------------------
    1 Atom       -0.029172     -0.008623      0.037795
    2 Atom       -0.029352     -0.008548      0.037900
    3 Atom       -0.061476      0.005992      0.055484
    4 Atom       -0.036671     -0.083502      0.120173
    5 Atom       -0.036487     -0.083724      0.120211
    6 Atom       -0.061479      0.006118      0.055361
    7 Atom        0.011598     -0.014331      0.002733
    8 Atom        0.011574     -0.014307      0.002733
    9 Atom       -0.128808      0.015192      0.113616
   10 Atom        0.128311      0.111589     -0.239901
   11 Atom        0.128328      0.111590     -0.239919
   12 Atom       -0.128667      0.015096      0.113571
   13 Atom        0.116526     -0.143724      0.027198
   14 Atom        0.115505      0.113601     -0.229106
   15 Atom        0.115585      0.115044     -0.230629
   16 Atom        0.115597      0.115045     -0.230642
   17 Atom        0.115508      0.113749     -0.229257
   18 Atom        0.116533     -0.143991      0.027458
   19 Atom       -0.228933      0.083661      0.145272
   20 Atom        0.133233      0.142079     -0.275312
   21 Atom        0.143600     -0.200303      0.056702
   22 Atom        0.143618     -0.200249      0.056631
   23 Atom        0.133266      0.142067     -0.275333
   24 Atom       -0.228799      0.083554      0.145244
 -----------------------------------------------------
 -----------------------------------------------------
    Center         ---- Electric Field Gradient ----
                       ( tensor representation )
                   ----       Eigenvalues       ----
 -----------------------------------------------------
    1 Atom       -0.132556      0.017100      0.115456
    2 Atom       -0.132640      0.017132      0.115508
    3 Atom       -0.206579      0.073269      0.133310
    4 Atom       -0.484610      0.153392      0.331218
    5 Atom       -0.484596      0.153394      0.331201
    6 Atom       -0.206555      0.073216      0.133340
    7 Atom       -0.051285      0.009369      0.041917
    8 Atom       -0.051238      0.009334      0.041904
    9 Atom       -0.251882      0.121563      0.130319
   10 Atom       -0.256939      0.125218      0.131721
   11 Atom       -0.256962      0.125229      0.131733
   12 Atom       -0.251891      0.121565      0.130325
   13 Atom       -0.251069      0.116419      0.134650
   14 Atom       -0.251767      0.115074      0.136693
   15 Atom       -0.245740      0.113080      0.132660
   16 Atom       -0.245712      0.113069      0.132643
   17 Atom       -0.251777      0.115082      0.136695
   18 Atom       -0.251086      0.116423      0.134662
   19 Atom       -0.300529      0.146965      0.153564
   20 Atom       -0.293424      0.145049      0.148375
   21 Atom       -0.292425      0.145375      0.147050
   22 Atom       -0.292422      0.145373      0.147050
   23 Atom       -0.293434      0.145056      0.148378
   24 Atom       -0.300500      0.146953      0.153547
 -----------------------------------------------------
 Calling FoFJK, ICntrl=      2127 FMM=F ISym2X=0 I1Cent= 0 IOpClX= 0 NMat=1 NMatS=1 NMatT=0.
 ***** Axes restored to original set *****
 -------------------------------------------------------------------
 Center     Atomic                   Forces (Hartrees/Bohr)
 Number     Number              X              Y              Z
 -------------------------------------------------------------------
      1        6           0.008134702    0.001821924    0.009748594
      2        6          -0.000072351    0.003077217    0.012455429
      3        6           0.000974957    0.007613740    0.019247970
      4        6           0.001290167    0.007953043    0.014897861
      5        6           0.009239144   -0.001578240    0.014111607
      6        6           0.012140843    0.000386113    0.016797483
      7        7          -0.012709228    0.009035291   -0.026724141
      8        7          -0.005352794   -0.020006547   -0.022961740
      9        1          -0.004022762    0.004802645   -0.014369645
     10        1          -0.006947722   -0.007602596    0.006303403
     11        1           0.008235926    0.008374873   -0.002752401
     12        1          -0.005078045   -0.010314854   -0.010651533
     13        1           0.009461880   -0.007476207   -0.005886006
     14        1          -0.007681706   -0.007768446    0.001967810
     15        1           0.006948082    0.009741306   -0.006344835
     16        1          -0.007987804   -0.010374659    0.003522330
     17        1           0.006128262    0.006806393   -0.006263234
     18        1          -0.011974460    0.005952759   -0.001061488
     19        1           0.006516578   -0.017003285    0.010448133
     20        1           0.011365110    0.002264914   -0.010612707
     21        1          -0.013495914    0.004647266   -0.000414183
     22        1           0.010858775   -0.006241018   -0.006860008
     23        1          -0.015042576   -0.004502799    0.000489198
     24        1          -0.000929065    0.020391166    0.004912106
 -------------------------------------------------------------------
 Cartesian Forces:  Max     0.026724141 RMS     0.010010430

 GradGradGradGradGradGradGradGradGradGradGradGradGradGradGradGradGradGrad
 Berny optimization.
 FormGI is forming the generalized inverse of G from B-inverse, IUseBI=4.
 Internal  Forces:  Max     0.019053201 RMS     0.006513209
 Search for a local minimum.
 Step number   1 out of a maximum of  144
 All quantities printed in internal units (Hartrees-Bohrs-Radians)
 Mixed Optimization -- RFO/linear search
 Second derivative matrix not updated -- first step.
 ITU=  0
     Eigenvalues ---    0.00230   0.00230   0.00412   0.00466   0.00618
     Eigenvalues ---    0.01835   0.02010   0.03627   0.03898   0.03944
     Eigenvalues ---    0.04027   0.04206   0.04356   0.04821   0.04836
     Eigenvalues ---    0.05208   0.05625   0.05693   0.05715   0.05715
     Eigenvalues ---    0.05747   0.05747   0.05978   0.06491   0.07801
     Eigenvalues ---    0.07803   0.08269   0.08274   0.08701   0.09387
     Eigenvalues ---    0.11894   0.12726   0.14674   0.15375   0.16000
     Eigenvalues ---    0.16000   0.16000   0.16000   0.16000   0.16000
     Eigenvalues ---    0.17115   0.19598   0.26069   0.27285   0.27327
     Eigenvalues ---    0.28526   0.28857   0.28916   0.30201   0.30203
     Eigenvalues ---    0.31871   0.31872   0.31883   0.31885   0.31925
     Eigenvalues ---    0.31925   0.32011   0.32013   0.32163   0.32166
     Eigenvalues ---    0.40574   0.40574   0.40576   0.40577   0.40577
     Eigenvalues ---    0.40578
 RFO step:  Lambda=-2.77879700D-02 EMin= 2.30000000D-03
 Linear search not attempted -- first point.
 Maximum step size (   0.300) exceeded in Quadratic search.
    -- Step size scaled by   0.958
 Iteration  1 RMS(Cart)=  0.06004701 RMS(Int)=  0.00182833
 Iteration  2 RMS(Cart)=  0.00345205 RMS(Int)=  0.00069394
 Iteration  3 RMS(Cart)=  0.00000698 RMS(Int)=  0.00069393
 Iteration  4 RMS(Cart)=  0.00000001 RMS(Int)=  0.00069393
 Variable       Old X    -DE/DX   Delta X   Delta X   Delta X     New X
                                 (Linear)    (Quad)   (Total)
    R1        2.89729  -0.00281   0.00000  -0.00803  -0.00842   2.88887
    R2        2.89596  -0.00227   0.00000  -0.00231  -0.00232   2.89364
    R3        2.10982  -0.01549   0.00000  -0.04274  -0.04274   2.06708
    R4        2.10824  -0.01186   0.00000  -0.03263  -0.03263   2.07561
    R5        2.89602  -0.00228   0.00000  -0.00236  -0.00236   2.89366
    R6        2.10821  -0.01185   0.00000  -0.03260  -0.03260   2.07560
    R7        2.10981  -0.01548   0.00000  -0.04273  -0.04273   2.06709
    R8        2.91131   0.00868   0.00000   0.02256   0.02258   2.93389
    R9        2.11058  -0.01291   0.00000  -0.03566  -0.03566   2.07491
   R10        2.11080  -0.01096   0.00000  -0.03028  -0.03028   2.08052
   R11        2.93199   0.00050   0.00000   0.00008   0.00043   2.93243
   R12        2.87565   0.01506   0.00000   0.04373   0.04373   2.91938
   R13        2.10542  -0.01239   0.00000  -0.03396  -0.03396   2.07146
   R14        2.91129   0.00869   0.00000   0.02258   0.02261   2.93389
   R15        2.87561   0.01509   0.00000   0.04381   0.04381   2.91942
   R16        2.10546  -0.01241   0.00000  -0.03400  -0.03400   2.07146
   R17        2.11079  -0.01095   0.00000  -0.03027  -0.03027   2.08052
   R18        2.11056  -0.01290   0.00000  -0.03565  -0.03565   2.07491
   R19        1.97476  -0.01518   0.00000  -0.03352  -0.03352   1.94124
   R20        1.97481  -0.01465   0.00000  -0.03237  -0.03237   1.94244
   R21        1.97477  -0.01367   0.00000  -0.03019  -0.03019   1.94458
   R22        1.97477  -0.01367   0.00000  -0.03019  -0.03019   1.94459
   R23        1.97481  -0.01465   0.00000  -0.03236  -0.03236   1.94244
   R24        1.97478  -0.01519   0.00000  -0.03355  -0.03355   1.94124
    A1        1.91233  -0.00176   0.00000  -0.00344  -0.00340   1.90893
    A2        1.91749   0.00115   0.00000   0.01460   0.01463   1.93212
    A3        1.92331   0.00147   0.00000   0.00236   0.00231   1.92561
    A4        1.92063   0.00049   0.00000  -0.00682  -0.00678   1.91385
    A5        1.91740  -0.00012   0.00000   0.00349   0.00343   1.92083
    A6        1.87239  -0.00118   0.00000  -0.01023  -0.01025   1.86214
    A7        1.91248  -0.00177   0.00000  -0.00350  -0.00346   1.90902
    A8        1.92329   0.00146   0.00000   0.00238   0.00233   1.92562
    A9        1.91746   0.00115   0.00000   0.01463   0.01465   1.93211
   A10        1.91738  -0.00012   0.00000   0.00353   0.00347   1.92085
   A11        1.92064   0.00048   0.00000  -0.00689  -0.00685   1.91379
   A12        1.87230  -0.00118   0.00000  -0.01018  -0.01021   1.86210
   A13        1.96521   0.00654   0.00000   0.02449   0.02438   1.98958
   A14        1.90766   0.00126   0.00000   0.01443   0.01445   1.92211
   A15        1.88471  -0.00203   0.00000   0.00119   0.00161   1.88632
   A16        1.91906  -0.00541   0.00000  -0.02486  -0.02507   1.89400
   A17        1.91649  -0.00178   0.00000  -0.01653  -0.01670   1.89979
   A18        1.86788   0.00125   0.00000   0.00071   0.00031   1.86819
   A19        1.95437  -0.00339   0.00000  -0.00312  -0.00335   1.95102
   A20        1.75073   0.01392   0.00000   0.09942   0.09992   1.85066
   A21        1.93139  -0.00271   0.00000  -0.01479  -0.01344   1.91796
   A22        1.97895  -0.00540   0.00000  -0.01617  -0.01853   1.96042
   A23        1.92959   0.00409   0.00000   0.00319   0.00183   1.93142
   A24        1.91200  -0.00620   0.00000  -0.06389  -0.06398   1.84801
   A25        1.95425  -0.00341   0.00000  -0.00316  -0.00339   1.95085
   A26        1.97881  -0.00539   0.00000  -0.01609  -0.01846   1.96035
   A27        1.92976   0.00409   0.00000   0.00312   0.00175   1.93152
   A28        1.75053   0.01395   0.00000   0.09971   0.10021   1.85074
   A29        1.93151  -0.00272   0.00000  -0.01489  -0.01353   1.91799
   A30        1.91215  -0.00621   0.00000  -0.06401  -0.06410   1.84806
   A31        1.96499   0.00655   0.00000   0.02456   0.02444   1.98943
   A32        1.88475  -0.00203   0.00000   0.00115   0.00157   1.88633
   A33        1.90773   0.00126   0.00000   0.01443   0.01445   1.92218
   A34        1.91649  -0.00178   0.00000  -0.01654  -0.01671   1.89978
   A35        1.91913  -0.00541   0.00000  -0.02487  -0.02507   1.89406
   A36        1.86794   0.00125   0.00000   0.00070   0.00030   1.86824
   A37        1.90652   0.01905   0.00000   0.10430   0.10264   2.00916
   A38        1.90970   0.00376   0.00000   0.01895   0.01752   1.92721
   A39        1.91117   0.00069   0.00000  -0.00341  -0.00359   1.90758
   A40        1.91044  -0.00850   0.00000  -0.02942  -0.03198   1.87846
   A41        1.91306  -0.00978   0.00000  -0.04947  -0.04993   1.86313
   A42        1.91290  -0.00512   0.00000  -0.04038  -0.04020   1.87270
   A43        1.91106   0.00070   0.00000  -0.00335  -0.00353   1.90753
   A44        1.90984   0.00375   0.00000   0.01888   0.01744   1.92728
   A45        1.90651   0.01905   0.00000   0.10427   0.10261   2.00913
   A46        1.91296  -0.00513   0.00000  -0.04041  -0.04023   1.87272
   A47        1.91298  -0.00978   0.00000  -0.04942  -0.04987   1.86311
   A48        1.91043  -0.00850   0.00000  -0.02941  -0.03196   1.87847
    D1       -1.05154   0.00169   0.00000   0.01074   0.01088  -1.04067
    D2        1.06022   0.00134   0.00000   0.01438   0.01444   1.07466
    D3        3.11954   0.00148   0.00000   0.01224   0.01231   3.13184
    D4        3.11961   0.00147   0.00000   0.01214   0.01220   3.13181
    D5       -1.05180   0.00112   0.00000   0.01577   0.01576  -1.03605
    D6        1.00751   0.00127   0.00000   0.01364   0.01363   1.02114
    D7        1.06016   0.00133   0.00000   0.01435   0.01441   1.07458
    D8       -3.11126   0.00099   0.00000   0.01799   0.01797  -3.09329
    D9       -1.05194   0.00113   0.00000   0.01586   0.01584  -1.03610
   D10        1.01529   0.00141   0.00000  -0.00516  -0.00523   1.01006
   D11       -1.10343   0.00088   0.00000  -0.00077  -0.00091  -1.10434
   D12       -3.12973  -0.00015   0.00000  -0.00992  -0.00996  -3.13969
   D13        3.12541   0.00202   0.00000   0.00641   0.00641   3.13183
   D14        1.00670   0.00149   0.00000   0.01080   0.01074   1.01743
   D15       -1.01960   0.00045   0.00000   0.00165   0.00168  -1.01792
   D16       -1.09999   0.00080   0.00000  -0.00810  -0.00809  -1.10808
   D17        3.06448   0.00027   0.00000  -0.00371  -0.00377   3.06071
   D18        1.03818  -0.00077   0.00000  -0.01286  -0.01282   1.02536
   D19        1.01449   0.00141   0.00000  -0.00501  -0.00508   1.00942
   D20       -3.13051  -0.00015   0.00000  -0.00981  -0.00984  -3.14035
   D21       -1.10433   0.00089   0.00000  -0.00062  -0.00076  -1.10509
   D22       -1.10085   0.00080   0.00000  -0.00796  -0.00795  -1.10880
   D23        1.03733  -0.00076   0.00000  -0.01276  -0.01272   1.02462
   D24        3.06351   0.00028   0.00000  -0.00357  -0.00363   3.05988
   D25        3.12467   0.00202   0.00000   0.00651   0.00652   3.13119
   D26       -1.02033   0.00045   0.00000   0.00171   0.00175  -1.01858
   D27        1.00585   0.00149   0.00000   0.01090   0.01084   1.01668
   D28       -0.90445   0.00099   0.00000   0.02152   0.02160  -0.88285
   D29       -3.00863   0.00080   0.00000  -0.01546  -0.01602  -3.02466
   D30        1.25696   0.00184   0.00000   0.01248   0.01181   1.26877
   D31       -3.03621  -0.00125   0.00000   0.00398   0.00457  -3.03164
   D32        1.14279  -0.00144   0.00000  -0.03300  -0.03305   1.10974
   D33       -0.87480  -0.00040   0.00000  -0.00506  -0.00522  -0.88002
   D34        1.19619   0.00151   0.00000   0.02777   0.02797   1.22416
   D35       -0.90800   0.00132   0.00000  -0.00921  -0.00966  -0.91765
   D36       -2.92559   0.00236   0.00000   0.01874   0.01818  -2.90741
   D37        0.83421  -0.00787   0.00000  -0.04586  -0.04537   0.78885
   D38        2.79956   0.00411   0.00000   0.06704   0.06717   2.86672
   D39       -1.32839  -0.00490   0.00000  -0.02655  -0.02673  -1.35512
   D40        2.79998   0.00407   0.00000   0.06668   0.06680   2.86679
   D41       -1.51786   0.01604   0.00000   0.17958   0.17934  -1.33852
   D42        0.63738   0.00704   0.00000   0.08599   0.08544   0.72282
   D43       -1.32820  -0.00492   0.00000  -0.02676  -0.02693  -1.35513
   D44        0.63714   0.00706   0.00000   0.08615   0.08560   0.72274
   D45        2.79238  -0.00195   0.00000  -0.00745  -0.00829   2.78408
   D46       -1.01178   0.00156   0.00000   0.03284   0.03401  -0.97777
   D47        1.08524  -0.00199   0.00000  -0.00713  -0.00681   1.07842
   D48       -3.10679   0.00146   0.00000   0.03161   0.03315  -3.07365
   D49       -3.09821  -0.00034   0.00000  -0.01580  -0.01540  -3.11361
   D50       -1.00120  -0.00389   0.00000  -0.05577  -0.05622  -1.05742
   D51        1.08996  -0.00044   0.00000  -0.01703  -0.01626   1.07370
   D52        1.02036   0.00293   0.00000   0.04033   0.03925   1.05961
   D53        3.11738  -0.00061   0.00000   0.00036  -0.00158   3.11580
   D54       -1.07465   0.00283   0.00000   0.03910   0.03838  -1.03627
   D55       -0.90525   0.00100   0.00000   0.02173   0.02180  -0.88344
   D56        1.19530   0.00152   0.00000   0.02796   0.02816   1.22346
   D57       -3.03699  -0.00124   0.00000   0.00414   0.00473  -3.03226
   D58       -3.00909   0.00080   0.00000  -0.01545  -0.01602  -3.02512
   D59       -0.90855   0.00132   0.00000  -0.00922  -0.00967  -0.91822
   D60        1.14235  -0.00144   0.00000  -0.03304  -0.03310   1.10925
   D61        1.25638   0.00184   0.00000   0.01250   0.01183   1.26821
   D62       -2.92626   0.00236   0.00000   0.01873   0.01818  -2.90808
   D63       -0.87536  -0.00040   0.00000  -0.00509  -0.00525  -0.88061
   D64        1.08987  -0.00044   0.00000  -0.01708  -0.01632   1.07355
   D65       -1.00121  -0.00389   0.00000  -0.05586  -0.05631  -1.05752
   D66       -3.09813  -0.00034   0.00000  -0.01593  -0.01553  -3.11366
   D67       -3.10722   0.00146   0.00000   0.03169   0.03323  -3.07399
   D68        1.08489  -0.00199   0.00000  -0.00708  -0.00676   1.07812
   D69       -1.01204   0.00156   0.00000   0.03284   0.03402  -0.97802
   D70       -1.07498   0.00284   0.00000   0.03918   0.03846  -1.03652
   D71        3.11712  -0.00061   0.00000   0.00041  -0.00153   3.11559
   D72        1.02020   0.00293   0.00000   0.04034   0.03925   1.05945
         Item               Value     Threshold  Converged?
 Maximum Force            0.019053     0.000450     NO 
 RMS     Force            0.006513     0.000300     NO 
 Maximum Displacement     0.276528     0.001800     NO 
 RMS     Displacement     0.060497     0.001200     NO 
 Predicted change in Energy=-1.628611D-02
 GradGradGradGradGradGradGradGradGradGradGradGradGradGradGradGradGradGrad

                          Input orientation:                          
 ---------------------------------------------------------------------
 Center     Atomic      Atomic             Coordinates (Angstroms)
 Number     Number       Type             X           Y           Z
 ---------------------------------------------------------------------
      1          6           0        1.253491    0.196713    1.578624
      2          6           0       -0.031506    0.969939    1.875106
      3          6           0       -0.572016    1.574290    0.576123
      4          6           0       -0.859357    0.528713   -0.535007
      5          6           0        0.352506   -0.412148   -0.767748
      6          6           0        0.955136   -0.917044    0.571030
      7          7           0       -0.031854   -1.677217   -1.566845
      8          7           0       -1.224730    1.338557   -1.798843
      9          1           0        1.664237   -0.236628    2.495150
     10          1           0        2.021194    0.871976    1.177306
     11          1           0       -0.782567    0.304799    2.322201
     12          1           0        0.155193    1.766174    2.601516
     13          1           0       -1.495321    2.134123    0.775352
     14          1           0        0.169041    2.297118    0.201321
     15          1           0       -1.754856   -0.049829   -0.280130
     16          1           0        1.126095    0.092244   -1.358282
     17          1           0        0.246902   -1.619096    1.037556
     18          1           0        1.870289   -1.482215    0.350426
     19          1           0       -0.391596   -1.502688   -2.513092
     20          1           0       -0.741793   -2.220187   -1.059163
     21          1           0        0.796699   -2.278542   -1.670808
     22          1           0       -2.013603    1.963961   -1.585640
     23          1           0       -0.434877    1.930056   -2.086649
     24          1           0       -1.504324    0.775860   -2.611529
 ---------------------------------------------------------------------
                    Distance matrix (angstroms):
                    1          2          3          4          5
     1  C    0.000000
     2  C    1.528724   0.000000
     3  C    2.497039   1.531257   0.000000
     4  C    3.006956   2.586244   1.552548   0.000000
     5  C    2.586107   3.007043   2.570344   1.551773   0.000000
     6  C    1.531247   2.496954   2.922151   2.570197   1.552549
     7  N    3.880426   4.342172   3.931461   2.572077   1.544891
     8  N    4.341967   3.880407   2.474281   1.544871   2.572119
     9  H    1.093853   2.171589   3.458745   4.016979   3.521072
    10  H    1.098365   2.170276   2.753072   3.368593   2.866484
    11  H    2.170281   1.098361   2.169038   2.866997   3.369004
    12  H    2.171583   1.093855   2.160525   3.521136   4.016959
    13  H    3.457568   2.169686   1.097997   2.167679   3.504157
    14  H    2.735818   2.145502   1.100964   2.174175   2.883206
    15  H    3.544842   2.941922   2.184043   1.096171   2.193175
    16  H    2.941524   3.544740   2.970180   2.193242   1.096167
    17  H    2.145492   2.735343   3.328853   2.882679   2.174166
    18  H    2.169726   3.457533   3.918931   3.504111   2.167723
    19  H    4.726142   5.049736   4.363898   2.873711   2.188422
    20  H    4.096399   4.392192   4.135341   2.800895   2.133405
    21  H    4.110274   4.879760   4.665447   3.451557   2.120437
    22  H    4.879512   4.110177   2.627401   2.120389   3.451566
    23  H    4.391958   4.096345   2.689932   2.133434   2.800962
    24  H    5.049588   4.726178   3.415819   2.188381   2.873797
                    6          7          8          9         10
     6  C    0.000000
     7  N    2.474373   0.000000
     8  N    3.931393   3.251411   0.000000
     9  H    2.160562   4.631611   5.409779   0.000000
    10  H    2.169020   4.271271   4.428452   1.758731   0.000000
    11  H    2.753019   4.429067   4.271670   2.511952   3.081160
    12  H    3.458677   5.409913   4.631436   2.509929   2.511956
    13  H    3.918687   4.706797   2.707882   4.308245   3.757720
    14  H    3.329485   4.354551   2.619560   3.730567   2.532597
    15  H    2.969948   2.696806   2.124885   4.407637   4.151192
    16  H    2.184063   2.124933   2.696993   3.904701   2.799713
    17  H    1.100962   2.619921   4.354144   2.458584   3.061549
    18  H    1.097994   2.707785   4.706937   2.488732   2.499744
    19  H    3.415915   1.027258   3.045807   5.559842   5.007957
    20  H    2.689847   1.027896   3.666745   4.728279   4.711408
    21  H    2.627663   1.029029   4.145597   4.719877   4.420057
    22  H    4.665278   4.145583   1.029031   5.917934   5.010578
    23  H    4.135380   3.666748   1.027897   5.485771   4.219624
    24  H    4.363891   3.045836   1.027259   6.094512   5.176272
                   11         12         13         14         15
    11  H    0.000000
    12  H    1.758700   0.000000
    13  H    2.499437   2.488867   0.000000
    14  H    3.061539   2.458258   1.768101   0.000000
    15  H    2.800578   3.905130   2.439477   3.072676   0.000000
    16  H    4.151400   4.407345   3.948859   2.865272   3.079363
    17  H    2.532092   3.730205   4.146172   4.005257   2.864599
    18  H    3.757521   4.308248   4.958407   4.147269   3.948545
    19  H    5.176865   6.094560   5.025781   4.703284   2.992557
    20  H    4.220290   5.486003   4.784691   4.777498   2.518659
    21  H    5.011173   5.918109   5.541540   4.983522   3.662182
    22  H    4.420349   4.719647   2.423191   2.840450   2.413847
    23  H    4.711721   4.727995   3.058961   2.394632   2.987608
    24  H    5.008446   5.559727   3.649100   3.609225   2.485950
                   16         17         18         19         20
    16  H    0.000000
    17  H    3.072735   0.000000
    18  H    2.439760   1.768126   0.000000
    19  H    2.486118   3.609478   3.649148   0.000000
    20  H    2.987610   2.394798   3.058515   1.658720   0.000000
    21  H    2.413876   2.841193   2.423245   1.650284   1.656645
    22  H    3.662338   4.982904   5.541579   3.938113   4.404745
    23  H    2.518870   4.777233   4.785052   3.459402   4.286542
    24  H    2.992836   4.703023   5.025942   2.537643   3.459421
                   21         22         23         24
    21  H    0.000000
    22  H    5.089585   0.000000
    23  H    4.404770   1.656664   0.000000
    24  H    3.938151   1.650272   1.658730   0.000000
 Stoichiometry    C6H16N2(2+)
 Framework group  C1[X(C6H16N2)]
 Deg. of freedom    66
 Full point group                 C1      NOp   1
 Largest Abelian subgroup         C1      NOp   1
 Largest concise Abelian subgroup C1      NOp   1
                         Standard orientation:                         
 ---------------------------------------------------------------------
 Center     Atomic      Atomic             Coordinates (Angstroms)
 Number     Number       Type             X           Y           Z
 ---------------------------------------------------------------------
      1          6           0        1.974809    0.654286    0.395589
      2          6           0        1.975055   -0.653921   -0.395354
      3          6           0        0.721710   -1.460374   -0.043914
      4          6           0       -0.609375   -0.708820   -0.315550
      5          6           0       -0.609485    0.708808    0.315582
      6          6           0        0.721465    1.460467    0.043571
      7          7           0       -1.730466    1.605300   -0.255725
[...]
    24  H    0.005796   0.333461   0.000088  -0.000242  -0.000193  -0.000187
              13         14         15         16         17         18
     1  C    0.008416  -0.014839  -0.001064  -0.015892  -0.084321  -0.015634
     2  C   -0.015634  -0.084321  -0.015892  -0.001064  -0.014839   0.008416
     3  C    0.421979   0.396451  -0.102852  -0.114381  -0.031313   0.029310
     4  C   -0.059022   0.203169   0.528854  -0.034073  -0.152556   0.012668
     5  C    0.012668  -0.152556  -0.034073   0.528854   0.203169  -0.059023
     6  C    0.029310  -0.031313  -0.114381  -0.102852   0.396451   0.421979
     7  N    0.000265  -0.005405  -0.011908  -0.018540   0.007911  -0.027245
     8  N   -0.027245   0.007911  -0.018540  -0.011909  -0.005405   0.000265
     9  H   -0.000902   0.000444   0.001089   0.001759  -0.001135  -0.011579
    10  H   -0.003243  -0.002835   0.002231   0.007505   0.003538  -0.009529
    11  H   -0.009529   0.003538   0.007505   0.002231  -0.002835  -0.003243
    12  H   -0.011579  -0.001135   0.001759   0.001089   0.000444  -0.000902
    13  H    0.528048  -0.045926  -0.043412  -0.009213  -0.003177   0.003105
    14  H   -0.045926   0.493811   0.023308   0.013022   0.000496  -0.003177
    15  H   -0.043412   0.023308   0.475216   0.025800   0.013022  -0.009213
    16  H   -0.009213   0.013022   0.025800   0.475217   0.023308  -0.043412
    17  H   -0.003177   0.000496   0.013022   0.023308   0.493812  -0.045926
    18  H    0.003105  -0.003177  -0.009213  -0.043412  -0.045926   0.528048
    19  H    0.000047   0.000395  -0.000931  -0.010769  -0.001240   0.002810
    20  H    0.000928  -0.000089  -0.000392  -0.002646  -0.006931   0.003050
    21  H    0.000255  -0.000736  -0.002855  -0.011784  -0.003553   0.011888
    22  H    0.011888  -0.003553  -0.011784  -0.002855  -0.000736   0.000255
    23  H    0.003050  -0.006931  -0.002646  -0.000392  -0.000089   0.000928
    24  H    0.002810  -0.001240  -0.010769  -0.000931   0.000395   0.000047
              19         20         21         22         23         24
     1  C   -0.000860   0.003887   0.000800   0.000594   0.000298  -0.001630
     2  C   -0.001630   0.000298   0.000594   0.000800   0.003887  -0.000860
     3  C    0.009779  -0.002394   0.002243   0.018499  -0.019529   0.029326
     4  C   -0.002436   0.031048   0.018352  -0.022166   0.015833  -0.035034
     5  C   -0.035034   0.015832  -0.022166   0.018352   0.031048  -0.002436
     6  C    0.029326  -0.019529   0.018499   0.002243  -0.002394   0.009779
     7  N    0.333461   0.317189   0.315843   0.002448  -0.002451   0.005796
     8  N    0.005796  -0.002451   0.002448   0.315843   0.317189   0.333461
     9  H   -0.000187   0.000049   0.000208  -0.000236  -0.000062   0.000088
    10  H   -0.000193  -0.000116   0.000246  -0.000307   0.000558  -0.000242
    11  H   -0.000242   0.000558  -0.000307   0.000246  -0.000116  -0.000193
    12  H    0.000088  -0.000062  -0.000236   0.000208   0.000049  -0.000187
    13  H    0.000047   0.000928   0.000255   0.011888   0.003050   0.002810
    14  H    0.000395  -0.000089  -0.000736  -0.003553  -0.006931  -0.001240
    15  H   -0.000931  -0.000392  -0.002855  -0.011784  -0.002646  -0.010769
    16  H   -0.010769  -0.002646  -0.011784  -0.002855  -0.000392  -0.000931
    17  H   -0.001240  -0.006931  -0.003553  -0.000736  -0.000089   0.000395
    18  H    0.002810   0.003050   0.011888   0.000255   0.000928   0.000047
    19  H    0.356996  -0.019098  -0.005088   0.000467  -0.000141   0.000071
    20  H   -0.019098   0.323056  -0.010741  -0.000101  -0.000011  -0.000141
    21  H   -0.005088  -0.010741   0.326349  -0.000059  -0.000101   0.000467
    22  H    0.000467  -0.000101  -0.000059   0.326349  -0.010741  -0.005088
    23  H   -0.000141  -0.000011  -0.000101  -0.010741   0.323056  -0.019098
    24  H    0.000071  -0.000141   0.000467  -0.005088  -0.019098   0.356996
 Mulliken charges:
               1
     1  C   -0.409231
     2  C   -0.409231
     3  C   -0.162207
     4  C   -0.535748
     5  C   -0.535747
     6  C   -0.162206
     7  N   -0.126811
     8  N   -0.126811
     9  H    0.253397
    10  H    0.194197
    11  H    0.194197
    12  H    0.253397
    13  H    0.206114
    14  H    0.211510
    15  H    0.301928
    16  H    0.301928
    17  H    0.211510
    18  H    0.206114
    19  H    0.338613
    20  H    0.368804
    21  H    0.359434
    22  H    0.359434
    23  H    0.368804
    24  H    0.338613
 Sum of Mulliken charges =   2.00000
 Mulliken charges with hydrogens summed into heavy atoms:
               1
     1  C    0.038363
     2  C    0.038363
     3  C    0.255417
     4  C   -0.233820
     5  C   -0.233820
     6  C    0.255417
     7  N    0.940040
     8  N    0.940039
 Electronic spatial extent (au):  <R**2>=           1077.7579
 Charge=              2.0000 electrons
 Dipole moment (field-independent basis, Debye):
    X=            -10.5287    Y=              0.0000    Z=              0.0000  Tot=             10.5287
 Quadrupole moment (field-independent basis, Debye-Ang):
   XX=            -10.4158   YY=            -16.0895   ZZ=            -41.4287
   XY=              0.0000   XZ=              0.0000   YZ=             -1.7431
 Traceless Quadrupole moment (field-independent basis, Debye-Ang):
   XX=             12.2288   YY=              6.5552   ZZ=            -18.7840
   XY=              0.0000   XZ=              0.0000   YZ=             -1.7431
 Octapole moment (field-independent basis, Debye-Ang**2):
  XXX=            -65.3547  YYY=              0.0000  ZZZ=              0.0000  XYY=            -46.4704
  XXY=              0.0000  XXZ=              0.0000  XZZ=            -12.2172  YZZ=              0.0000
  YYZ=              0.0000  XYZ=              4.3626
 Hexadecapole moment (field-independent basis, Debye-Ang**3):
 XXXX=           -456.0039 YYYY=           -360.9915 ZZZZ=            -96.4668 XXXY=              0.0000
 XXXZ=              0.0000 YYYX=             -0.0001 YYYZ=              2.3283 ZZZX=              0.0000
 ZZZY=            -11.9507 XXYY=            -99.1853 XXZZ=           -116.6297 YYZZ=            -91.8847
 XXYZ=             -7.9047 YYXZ=              0.0000 ZZXY=              0.0000
 N-N= 4.347335098087D+02 E-N=-1.652306724568D+03  KE= 3.456119035373D+02

 **********************************************************************

            Electrostatic Properties Using The SCF Density

 **********************************************************************

       Atomic Center    1 is at   1.978941  0.690198  0.328516
       Atomic Center    2 is at   1.978940 -0.690200 -0.328516
       Atomic Center    3 is at   0.713291 -1.468925  0.053457
       Atomic Center    4 is at  -0.576909 -0.705961 -0.310050
       Atomic Center    5 is at  -0.576908  0.705961  0.310050
       Atomic Center    6 is at   0.713292  1.468925 -0.053457
       Atomic Center    7 is at  -1.750509  1.594615 -0.168690
       Atomic Center    8 is at  -1.750510 -1.594614  0.168690
       Atomic Center    9 is at   2.848913  1.267964  0.011704
       Atomic Center   10 is at   2.048701  0.597764  1.417712
       Atomic Center   11 is at   2.048700 -0.597765 -1.417713
       Atomic Center   12 is at   2.848912 -1.267966 -0.011704
       Atomic Center   13 is at   0.696668 -2.438400 -0.455154
       Atomic Center   14 is at   0.719453 -1.665989  1.133675
       Atomic Center   15 is at  -0.690650 -0.653202 -1.397154
       Atomic Center   16 is at  -0.690649  0.653202  1.397154
       Atomic Center   17 is at   0.719455  1.665989 -1.133674
       Atomic Center   18 is at   0.696670  2.438400  0.455155
       Atomic Center   19 is at  -2.683365  1.311673  0.149842
       Atomic Center   20 is at  -1.772865  1.681170 -1.192597
       Atomic Center   21 is at  -1.605227  2.547053  0.193440
       Atomic Center   22 is at  -1.605228 -2.547052 -0.193439
       Atomic Center   23 is at  -1.772868 -1.681168  1.192597
       Atomic Center   24 is at  -2.683366 -1.311672 -0.149844
 -----------------------------------------------------------------

              Electrostatic Properties (Atomic Units)

 -----------------------------------------------------------------
    Center     Electric         -------- Electric Field --------
               Potential          X             Y             Z
 -----------------------------------------------------------------
    1 Atom    -14.502569      0.003492     -0.001653     -0.000193
    2 Atom    -14.502569      0.003492      0.001653      0.000193
    3 Atom    -14.461611      0.007298     -0.000602     -0.000742
    4 Atom    -14.360336      0.012595      0.002976     -0.003007
    5 Atom    -14.360336      0.012595     -0.002976      0.003007
    6 Atom    -14.461611      0.007298      0.000602      0.000742
    7 Atom    -17.932160      0.006276     -0.004131      0.002313
    8 Atom    -17.932160      0.006276      0.004131     -0.002313
    9 Atom     -0.860340      0.014995      0.009786     -0.005257
   10 Atom     -0.858612      0.001656     -0.001321      0.018049
   11 Atom     -0.858612      0.001656      0.001321     -0.018049
   12 Atom     -0.860340      0.014995     -0.009786      0.005257
   13 Atom     -0.814889      0.000533     -0.016072     -0.008473
   14 Atom     -0.814241      0.000648     -0.003436      0.017598
   15 Atom     -0.751369     -0.001493      0.000777     -0.018865
   16 Atom     -0.751369     -0.001493     -0.000777      0.018865
   17 Atom     -0.814241      0.000648      0.003436     -0.017598
   18 Atom     -0.814889      0.000533      0.016072      0.008473
   19 Atom     -0.613976     -0.019055     -0.005336      0.006532
   20 Atom     -0.616370     -0.000570      0.002106     -0.020695
   21 Atom     -0.617844      0.002514      0.019315      0.007193
   22 Atom     -0.617845      0.002514     -0.019315     -0.007193
   23 Atom     -0.616370     -0.000570     -0.002106      0.020695
   24 Atom     -0.613976     -0.019055      0.005336     -0.006532
 -----------------------------------------------------------------
 -----------------------------------------------------
    Center         ---- Electric Field Gradient ----
                     XX            YY            ZZ
 -----------------------------------------------------
    1 Atom     -500.316702   -500.288447   -500.196738
    2 Atom     -500.316702   -500.288447   -500.196739
    3 Atom     -500.485669   -500.365999   -500.302035
    4 Atom     -500.822249   -500.716721   -500.476717
    5 Atom     -500.822248   -500.716721   -500.476716
    6 Atom     -500.485670   -500.365999   -500.302035
    7 Atom     -812.470134   -812.404658   -812.415621
    8 Atom     -812.470133   -812.404658   -812.415622
    9 Atom       -1.947977     -1.797015     -1.704240
   10 Atom       -1.687924     -1.690392     -2.115444
   11 Atom       -1.687924     -1.690392     -2.115444
   12 Atom       -1.947977     -1.797015     -1.704240
   13 Atom       -1.687491     -2.010305     -1.764323
   14 Atom       -1.689092     -1.686781     -2.092455
   15 Atom       -1.694352     -1.692174     -2.097688
   16 Atom       -1.694352     -1.692174     -2.097688
   17 Atom       -1.689092     -1.686781     -2.092455
   18 Atom       -1.687491     -2.010305     -1.764323
   19 Atom       -1.976341     -1.609281     -1.607898
   20 Atom       -1.542258     -1.543114     -2.039729
   21 Atom       -1.542001     -1.945507     -1.591221
   22 Atom       -1.542001     -1.945507     -1.591220
   23 Atom       -1.542258     -1.543114     -2.039729
   24 Atom       -1.976340     -1.609281     -1.607898
 -----------------------------------------------------
 -----------------------------------------------------
    Center         ---- Electric Field Gradient ----
                     XY            XZ            YZ
 -----------------------------------------------------
    1 Atom        0.124134     -0.065015     -0.019594
    2 Atom       -0.124134      0.065015     -0.019594
    3 Atom        0.155502     -0.062204      0.053308
    4 Atom       -0.371670      0.237941      0.085957
    5 Atom        0.371670     -0.237941      0.085957
    6 Atom       -0.155502      0.062204      0.053308
    7 Atom        0.019672      0.002327      0.032816
    8 Atom       -0.019672     -0.002327      0.032816
    9 Atom       -0.182160      0.103771      0.070443
   10 Atom        0.006115     -0.021010      0.038495
   11 Atom       -0.006115      0.021009      0.038495
   12 Atom        0.182160     -0.103770      0.070443
   13 Atom       -0.011938     -0.009824     -0.181645
   14 Atom        0.002923      0.005312      0.072606
   15 Atom       -0.007727     -0.047149      0.024416
   16 Atom        0.007727      0.047149      0.024416
   17 Atom       -0.002923     -0.005312      0.072606
   18 Atom        0.011938      0.009824     -0.181645
   19 Atom       -0.140063      0.146320      0.049471
   20 Atom        0.001382     -0.006674      0.033666
   21 Atom       -0.067447     -0.027430     -0.163114
   22 Atom        0.067447      0.027430     -0.163113
   23 Atom       -0.001382      0.006675      0.033665
   24 Atom        0.140063     -0.146321      0.049471
 -----------------------------------------------------
 -----------------------------------------------------
    Center         ---- Electric Field Gradient ----
                   ----       Eigenvalues       ----
 -----------------------------------------------------
    1 Atom     -500.433140   -500.242039   -500.126708
    2 Atom     -500.433140   -500.242039   -500.126708
    3 Atom     -500.613750   -500.283667   -500.256286
    4 Atom     -501.220780   -500.484304   -500.310603
    5 Atom     -501.220779   -500.484304   -500.310603
    6 Atom     -500.613751   -500.283667   -500.256287
    7 Atom     -812.476488   -812.439944   -812.373980
    8 Atom     -812.476488   -812.439945   -812.373981
    9 Atom       -2.108577     -1.675395     -1.665259
   10 Atom       -2.119969     -1.691100     -1.682690
   11 Atom       -2.119969     -1.691100     -1.682690
   12 Atom       -2.108577     -1.675395     -1.665259
   13 Atom       -2.107228     -1.687431     -1.667460
   14 Atom       -2.105112     -1.689948     -1.673268
   15 Atom       -2.104452     -1.700383     -1.679379
   16 Atom       -2.104452     -1.700383     -1.679379
   17 Atom       -2.105112     -1.689948     -1.673268
   18 Atom       -2.107228     -1.687431     -1.667460
   19 Atom       -2.074779     -1.561941     -1.556799
   20 Atom       -2.042092     -1.542646     -1.540363
   21 Atom       -2.020249     -1.531203     -1.527276
   22 Atom       -2.020249     -1.531203     -1.527276
   23 Atom       -2.042092     -1.542646     -1.540363
   24 Atom       -2.074779     -1.561941     -1.556799
 -----------------------------------------------------
 -----------------------------------------------------
    Center         ---- Electric Field Gradient ----
                       ( tensor representation )
                   3XX-RR        3YY-RR        3ZZ-RR
 -----------------------------------------------------
    1 Atom       -0.049406     -0.021151      0.070558
    2 Atom       -0.049406     -0.021151      0.070557
    3 Atom       -0.101101      0.018569      0.082533
    4 Atom       -0.150354     -0.044825      0.195179
    5 Atom       -0.150353     -0.044826      0.195179
    6 Atom       -0.101102      0.018569      0.082533
    7 Atom       -0.039996      0.025480      0.014516
    8 Atom       -0.039996      0.025480      0.014516
    9 Atom       -0.131567      0.019396      0.112171
   10 Atom        0.143329      0.140862     -0.284191
   11 Atom        0.143329      0.140862     -0.284191
   12 Atom       -0.131567      0.019396      0.112171
   13 Atom        0.133215     -0.189599      0.056383
   14 Atom        0.133684      0.135995     -0.269679
   15 Atom        0.133720      0.135897     -0.269617
   16 Atom        0.133720      0.135897     -0.269617
   17 Atom        0.133684      0.135995     -0.269679
   18 Atom        0.133215     -0.189599      0.056383
   19 Atom       -0.245168      0.121892      0.123276
   20 Atom        0.166109      0.165253     -0.331362
   21 Atom        0.150909     -0.252597      0.101689
   22 Atom        0.150909     -0.252598      0.101689
   23 Atom        0.166109      0.165253     -0.331362
   24 Atom       -0.245167      0.121892      0.123275
 -----------------------------------------------------
 -----------------------------------------------------
    Center         ---- Electric Field Gradient ----
                       ( tensor representation )
                   ----       Eigenvalues       ----
 -----------------------------------------------------
    1 Atom       -0.165844      0.025257      0.140588
    2 Atom       -0.165844      0.025257      0.140588
    3 Atom       -0.229182      0.100901      0.128282
    4 Atom       -0.548884      0.187592      0.361293
    5 Atom       -0.548884      0.187592      0.361292
    6 Atom       -0.229183      0.100901      0.128282
    7 Atom       -0.046350     -0.009807      0.056157
    8 Atom       -0.046350     -0.009807      0.056157
    9 Atom       -0.292167      0.141016      0.151151
   10 Atom       -0.288716      0.140153      0.148563
   11 Atom       -0.288716      0.140153      0.148563
   12 Atom       -0.292167      0.141016      0.151151
   13 Atom       -0.286521      0.133275      0.153246
   14 Atom       -0.282336      0.132828      0.149508
   15 Atom       -0.276381      0.127688      0.148692
   16 Atom       -0.276381      0.127688      0.148692
   17 Atom       -0.282336      0.132828      0.149508
   18 Atom       -0.286521      0.133275      0.153246
   19 Atom       -0.343606      0.169232      0.174374
   20 Atom       -0.333725      0.165721      0.168004
   21 Atom       -0.327340      0.161706      0.165634
   22 Atom       -0.327340      0.161706      0.165634
   23 Atom       -0.333725      0.165721      0.168004
   24 Atom       -0.343606      0.169232      0.174374
 -----------------------------------------------------

 Test job not archived.
 1|1|UNPC-NP-ALMACH|FOpt|RB3LYP|6-311++G(d,p)|C6H16N2(2+)|HERA|04-Aug-2
 018|0||# RB3LYP/6-311++G** Opt Test prop=EFG||C6N2H16||2,1|C,1.2274064
 564,0.1480691007,1.6050369399|C,-0.001801347,1.0207989396,1.8591613501
 |C,-0.5244284095,1.6120040993,0.5432880103|C,-0.8502008813,0.523875068
 9,-0.5001262254|C,0.3660787298,-0.393349565,-0.739730633|C,0.903381727
 8,-0.9573202031,0.5914750782|N,0.0530356671,-1.6200544826,-1.630480072
 7|N,-1.3222342965,1.2737911217,-1.7693962339|H,1.5656882728,-0.3203992
 713,2.5308545624|H,2.062989068,0.7566370258,1.2428115375|H,-0.79071860
 59,0.440571813,2.3497799709|H,0.2418814471,1.8427033331,2.534533358|H,
 -1.4305149282,2.1992512766,0.7249249995|H,0.2289380106,2.2931104983,0.
 1258248269|H,-1.7192650525,-0.0586209656,-0.1792787148|H,1.1590558293,
 0.1429386683,-1.2699188687|H,0.1541380574,-1.6359228829,1.0202812417|H
 ,1.7983490258,-1.5513201152,0.3792448486|H,-0.1531659154,-1.4163128174
 ,-2.6142024684|H,-0.7181776981,-2.1830727656,-1.2501928822|H,0.8777514
 428,-2.2358394343,-1.6364336993|H,-2.0497632384,1.9485995302,-1.496050
 4257|H,-0.5659759407,1.8277255556,-2.1908317174|H,-1.7400654213,0.6910
 654719,-2.5025997825||Version=EM64W-G09RevD.01|State=1-A|HF=-347.26560
 61|RMSD=3.505e-009|RMSF=5.799e-006|Dipole=-1.3854878,-0.8414276,-3.811
 9593|Quadrupole=-7.4477229,1.8844664,5.5632565,-6.1856437,7.3768217,3.
 8391329|PG=C01 [X(C6H16N2)]||@


 THE MOST BEAUTIFUL EXPERIENCE WE CAN HAVE IS THE MYSTERIOUS.
 IT IS THE FUNDAMENTAL EMOTION WHICH STANDS AT AT THE CRADLE 
 OF TRUE ART AND TRUE SCIENCE.

                                    -- ALBERT EINSTEIN
 Job cpu time:       0 days  0 hours  5 minutes 45.0 seconds.
 File lengths (MBytes):  RWF=     39 Int=      0 D2E=      0 Chk=      7 Scr=      1
 Normal termination of Gaussian 09 at Sat Aug 04 06:11:33 2018.
