 Entering Link 1 = C:\G09W\l1.exe PID=     25332.
  
 Copyright (c) 1988,1990,1992,1993,1995,1998,2003,2009,2013,
            Gaussian, Inc.  All Rights Reserved.
  
 This is part of the Gaussian(R) 09 program.  It is based on
 the Gaussian(R) 03 system (copyright 2003, Gaussian, Inc.),
 the Gaussian(R) 98 system (copyright 1998, Gaussian, Inc.),
 the Gaussian(R) 94 system (copyright 1995, Gaussian, Inc.),
 the Gaussian 92(TM) system (copyright 1992, Gaussian, Inc.),
 the Gaussian 90(TM) system (copyright 1990, Gaussian, Inc.),
 the Gaussian 88(TM) system (copyright 1988, Gaussian, Inc.),
 the Gaussian 86(TM) system (copyright 1986, Carnegie Mellon
 University), and the Gaussian 82(TM) system (copyright 1983,
 Carnegie Mellon University). Gaussian is a federally registered
 trademark of Gaussian, Inc.
  
 This software contains proprietary and confidential information,
 including trade secrets, belonging to Gaussian, Inc.
  
 This software is provided under written license and may be
 used, copied, transmitted, or stored only in accord with that
 written license.
  
 The following legend is applicable only to US Government
 contracts under FAR:
  
                    RESTRICTED RIGHTS LEGEND
  
 Use, reproduction and disclosure by the US Government is
 subject to restrictions as set forth in subparagraphs (a)
 and (c) of the Commercial Computer Software - Restricted
 Rights clause in FAR 52.227-19.
  
 Gaussian, Inc.
 340 Quinnipiac St., Bldg. 40, Wallingford CT 06492
  
  
 ---------------------------------------------------------------
 Warning -- This program may not be used in any manner that
 competes with the business of Gaussian, Inc. or will provide
 assistance to any competitor of Gaussian, Inc.  The licensee
 of this program is prohibited from giving any competitor of
 Gaussian, Inc. access to this program.  By using this program,
 the user acknowledges that Gaussian, Inc. is engaged in the
 business of creating and licensing software in the field of
 computational chemistry and represents and warrants to the
 licensee that it is not a competitor of Gaussian, Inc. and that
 it will not use this program in any manner prohibited above.
 ---------------------------------------------------------------
  

 Cite this work as:
 Gaussian 09, Revision D.01,
 M. J. Frisch, G. W. Trucks, H. B. Schlegel, G. E. Scuseria, 
 M. A. Robb, J. R. Cheeseman, G. Scalmani, V. Barone, B. Mennucci, 
 G. A. Petersson, H. Nakatsuji, M. Caricato, X. Li, H. P. Hratchian, 
 A. F. Izmaylov, J. Bloino, G. Zheng, J. L. Sonnenberg, M. Hada, 
 M. Ehara, K. Toyota, R. Fukuda, J. Hasegawa, M. Ishida, T. Nakajima, 
 Y. Honda, O. Kitao, H. Nakai, T. Vreven, J. A. Montgomery, Jr., 
 J. E. Peralta, F. Ogliaro, M. Bearpark, J. J. Heyd, E. Brothers, 
 K. N. Kudin, V. N. Staroverov, T. Keith, R. Kobayashi, J. Normand, 
 K. Raghavachari, A. Rendell, J. C. Burant, S. S. Iyengar, J. Tomasi, 
 M. Cossi, N. Rega, J. M. Millam, M. Klene, J. E. Knox, J. B. Cross, 
 V. Bakken, C. Adamo, J. Jaramillo, R. Gomperts, R. E. Stratmann, 
 O. Yazyev, A. J. Austin, R. Cammi, C. Pomelli, J. W. Ochterski, 
 R. L. Martin, K. Morokuma, V. G. Zakrzewski, G. A. Voth, 
 P. Salvador, J. J. Dannenberg, S. Dapprich, A. D. Daniels, 
 O. Farkas, J. B. Foresman, J. V. Ortiz, J. Cioslowski, 
 and D. J. Fox, Gaussian, Inc., Wallingford CT, 2013.
 
 ******************************************
 Gaussian 09:  EM64W-G09RevD.01 13-Apr-2013
                04-Aug-2018 
 ******************************************
 %Chk=Anth_298.chk
 %Mem=64GB
 %NProcShared=20
 Will use up to   20 processors via shared memory.
 -------------------------------------
 # RB3LYP/6-311++G** Opt Test prop=EFG
 -------------------------------------
 1/14=-1,18=20,19=15,26=3,38=1/1,3;
 2/9=110,12=2,17=6,18=5,40=1/2;
 3/5=4,6=6,7=1111,11=2,16=1,25=1,30=1,71=1,74=-5,116=1/1,2,3;
 4//1;
 5/5=2,38=5/2;
 6/7=2,8=2,9=2,10=2,14=1,28=1/1,2;
 7//1,2,3,16;
 1/14=-1,18=20,19=15,26=3/3(2);
 2/9=110/2;
 99//99;
 2/9=110/2;
 3/5=4,6=6,7=1111,11=2,16=1,25=1,30=1,71=1,74=-5,116=1/1,2,3;
 4/5=5,16=3,69=1/1;
 5/5=2,38=5/2;
 7//1,2,3,16;
 1/14=-1,18=20,19=15,26=3/3(-5);
 2/9=110/2;
 6/7=2,8=2,9=2,10=2,14=1,19=2,28=1/1,2;
 99/9=1/99;
 ------
 C7NH16
 ------
 Symbolic Z-matrix:
 Charge =  1 Multiplicity = 1
 C                     1.81759   0.28389   0.04158 
 C                     1.17128   0.96657   1.26773 
 C                    -0.20539   1.6112    1.04162 
 C                    -1.34687   0.61041   0.7962 
 C                    -0.92158  -0.68026   0.09068 
 C                    -0.26122  -0.50419  -1.2797 
 C                     1.01938   0.34801  -1.27008 
 N                    -2.19854  -1.43157  -0.17337 
 H                     2.81339   0.75824  -0.14135 
 H                     2.04308  -0.78478   0.27126 
 H                     1.86403   1.76548   1.63117 
 H                     1.09283   0.24148   2.11264 
 H                    -0.1427    2.34246   0.20372 
 H                    -0.47025   2.23193   1.9327 
 H                    -1.78734   0.32369   1.78276 
 H                    -2.15826   1.1167    0.22073 
 H                    -0.2954   -1.31514   0.75954 
 H                    -0.98712  -0.06569  -2.00528 
 H                    -0.00638  -1.52364  -1.66109 
 H                     0.78404   1.4095   -1.51221 
 H                     1.67119   0.00935  -2.11264 
 H                    -2.69167  -1.6089    0.73069 
 H                    -2.81339  -0.86424  -0.79953 
 H                    -1.97757  -2.34246  -0.6353 
 

 GradGradGradGradGradGradGradGradGradGradGradGradGradGradGradGradGradGrad
 Berny optimization.
 Initialization pass.
                           ----------------------------
                           !    Initial Parameters    !
                           ! (Angstroms and Degrees)  !
 --------------------------                            --------------------------
 ! Name  Definition              Value          Derivative Info.                !
 --------------------------------------------------------------------------------
 ! R1    R(1,2)                  1.5451         estimate D2E/DX2                !
 ! R2    R(1,7)                  1.5368         estimate D2E/DX2                !
 ! R3    R(1,9)                  1.1181         estimate D2E/DX2                !
 ! R4    R(1,10)                 1.1161         estimate D2E/DX2                !
 ! R5    R(2,3)                  1.5368         estimate D2E/DX2                !
 ! R6    R(2,11)                 1.1181         estimate D2E/DX2                !
 ! R7    R(2,12)                 1.1162         estimate D2E/DX2                !
 ! R8    R(3,4)                  1.5378         estimate D2E/DX2                !
 ! R9    R(3,13)                 1.1139         estimate D2E/DX2                !
 ! R10   R(3,14)                 1.1178         estimate D2E/DX2                !
 ! R11   R(4,5)                  1.5312         estimate D2E/DX2                !
 ! R12   R(4,15)                 1.1178         estimate D2E/DX2                !
 ! R13   R(4,16)                 1.1162         estimate D2E/DX2                !
 ! R14   R(5,6)                  1.5313         estimate D2E/DX2                !
 ! R15   R(5,8)                  1.5049         estimate D2E/DX2                !
 ! R16   R(5,17)                 1.1147         estimate D2E/DX2                !
 ! R17   R(6,7)                  1.5383         estimate D2E/DX2                !
 ! R18   R(6,18)                 1.1161         estimate D2E/DX2                !
 ! R19   R(6,19)                 1.1179         estimate D2E/DX2                !
 ! R20   R(7,20)                 1.1139         estimate D2E/DX2                !
 ! R21   R(7,21)                 1.1178         estimate D2E/DX2                !
 ! R22   R(8,22)                 1.045          estimate D2E/DX2                !
 ! R23   R(8,23)                 1.045          estimate D2E/DX2                !
 ! R24   R(8,24)                 1.045          estimate D2E/DX2                !
 ! A1    A(2,1,7)              116.2085         estimate D2E/DX2                !
 ! A2    A(2,1,9)              108.3575         estimate D2E/DX2                !
 ! A3    A(2,1,10)             110.1379         estimate D2E/DX2                !
 ! A4    A(7,1,9)              107.7733         estimate D2E/DX2                !
 ! A5    A(7,1,10)             108.6951         estimate D2E/DX2                !
 ! A6    A(9,1,10)             105.0673         estimate D2E/DX2                !
 ! A7    A(1,2,3)              116.3137         estimate D2E/DX2                !
 ! A8    A(1,2,11)             108.3301         estimate D2E/DX2                !
 ! A9    A(1,2,12)             110.0662         estimate D2E/DX2                !
 ! A10   A(3,2,11)             107.6441         estimate D2E/DX2                !
 ! A11   A(3,2,12)             108.7172         estimate D2E/DX2                !
 ! A12   A(11,2,12)            105.1683         estimate D2E/DX2                !
 ! A13   A(2,3,4)              114.5462         estimate D2E/DX2                !
 ! A14   A(2,3,13)             109.6106         estimate D2E/DX2                !
 ! A15   A(2,3,14)             109.1408         estimate D2E/DX2                !
 ! A16   A(4,3,13)             110.4241         estimate D2E/DX2                !
 ! A17   A(4,3,14)             108.2244         estimate D2E/DX2                !
 ! A18   A(13,3,14)            104.385          estimate D2E/DX2                !
 ! A19   A(3,4,5)              114.5786         estimate D2E/DX2                !
 ! A20   A(3,4,15)             108.5762         estimate D2E/DX2                !
 ! A21   A(3,4,16)             109.0677         estimate D2E/DX2                !
 ! A22   A(5,4,15)             107.4518         estimate D2E/DX2                !
 ! A23   A(5,4,16)             110.2856         estimate D2E/DX2                !
 ! A24   A(15,4,16)            106.5549         estimate D2E/DX2                !
 ! A25   A(4,5,6)              115.7976         estimate D2E/DX2                !
 ! A26   A(4,5,8)              105.4252         estimate D2E/DX2                !
 ! A27   A(4,5,17)             111.0781         estimate D2E/DX2                !
 ! A28   A(6,5,8)              105.444          estimate D2E/DX2                !
 ! A29   A(6,5,17)             111.1131         estimate D2E/DX2                !
 ! A30   A(8,5,17)             107.3137         estimate D2E/DX2                !
 ! A31   A(5,6,7)              114.6514         estimate D2E/DX2                !
 ! A32   A(5,6,18)             110.2716         estimate D2E/DX2                !
 ! A33   A(5,6,19)             107.3825         estimate D2E/DX2                !
 ! A34   A(7,6,18)             109.1391         estimate D2E/DX2                !
 ! A35   A(7,6,19)             108.5163         estimate D2E/DX2                !
 ! A36   A(18,6,19)            106.5443         estimate D2E/DX2                !
 ! A37   A(1,7,6)              114.4956         estimate D2E/DX2                !
 ! A38   A(1,7,20)             109.5748         estimate D2E/DX2                !
 ! A39   A(1,7,21)             109.1379         estimate D2E/DX2                !
 ! A40   A(6,7,20)             110.5288         estimate D2E/DX2                !
 ! A41   A(6,7,21)             108.2332         estimate D2E/DX2                !
 ! A42   A(20,7,21)            104.3629         estimate D2E/DX2                !
 ! A43   A(5,8,22)             109.4724         estimate D2E/DX2                !
 ! A44   A(5,8,23)             109.4725         estimate D2E/DX2                !
 ! A45   A(5,8,24)             109.47           estimate D2E/DX2                !
 ! A46   A(22,8,23)            109.4434         estimate D2E/DX2                !
 ! A47   A(22,8,24)            109.5304         estimate D2E/DX2                !
 ! A48   A(23,8,24)            109.4386         estimate D2E/DX2                !
 ! D1    D(7,1,2,3)              0.9713         estimate D2E/DX2                !
 ! D2    D(7,1,2,11)          -120.3645         estimate D2E/DX2                !
 ! D3    D(7,1,2,12)           125.1495         estimate D2E/DX2                !
 ! D4    D(9,1,2,3)            122.4253         estimate D2E/DX2                !
 ! D5    D(9,1,2,11)             1.0895         estimate D2E/DX2                !
 ! D6    D(9,1,2,12)          -113.3965         estimate D2E/DX2                !
 ! D7    D(10,1,2,3)          -123.1556         estimate D2E/DX2                !
 ! D8    D(10,1,2,11)          115.5086         estimate D2E/DX2                !
 ! D9    D(10,1,2,12)            1.0226         estimate D2E/DX2                !
 ! D10   D(2,1,7,6)            -69.8235         estimate D2E/DX2                !
 ! D11   D(2,1,7,20)            54.9977         estimate D2E/DX2                !
 ! D12   D(2,1,7,21)           168.7059         estimate D2E/DX2                !
 ! D13   D(9,1,7,6)            168.4128         estimate D2E/DX2                !
 ! D14   D(9,1,7,20)           -66.7659         estimate D2E/DX2                !
 ! D15   D(9,1,7,21)            46.9422         estimate D2E/DX2                !
 ! D16   D(10,1,7,6)            55.0434         estimate D2E/DX2                !
 ! D17   D(10,1,7,20)          179.8647         estimate D2E/DX2                !
 ! D18   D(10,1,7,21)          -66.4272         estimate D2E/DX2                !
 ! D19   D(1,2,3,4)             69.3268         estimate D2E/DX2                !
 ! D20   D(1,2,3,13)           -55.4219         estimate D2E/DX2                !
 ! D21   D(1,2,3,14)          -169.177          estimate D2E/DX2                !
 ! D22   D(11,2,3,4)          -168.9742         estimate D2E/DX2                !
 ! D23   D(11,2,3,13)           66.2771         estimate D2E/DX2                !
 ! D24   D(11,2,3,14)          -47.478          estimate D2E/DX2                !
 ! D25   D(12,2,3,4)           -55.5417         estimate D2E/DX2                !
 ! D26   D(12,2,3,13)          179.7096         estimate D2E/DX2                !
 ! D27   D(12,2,3,14)           65.9545         estimate D2E/DX2                !
 ! D28   D(2,3,4,5)            -31.2243         estimate D2E/DX2                !
 ! D29   D(2,3,4,15)            88.8832         estimate D2E/DX2                !
 ! D30   D(2,3,4,16)          -155.3818         estimate D2E/DX2                !
 ! D31   D(13,3,4,5)            93.0937         estimate D2E/DX2                !
 ! D32   D(13,3,4,15)         -146.7988         estimate D2E/DX2                !
 ! D33   D(13,3,4,16)          -31.0638         estimate D2E/DX2                !
 ! D34   D(14,3,4,5)          -153.2213         estimate D2E/DX2                !
 ! D35   D(14,3,4,15)          -33.1138         estimate D2E/DX2                !
 ! D36   D(14,3,4,16)           82.6212         estimate D2E/DX2                !
 ! D37   D(3,4,5,6)            -58.0621         estimate D2E/DX2                !
 ! D38   D(3,4,5,8)           -174.1787         estimate D2E/DX2                !
 ! D39   D(3,4,5,17)            69.8954         estimate D2E/DX2                !
 ! D40   D(15,4,5,6)          -178.7925         estimate D2E/DX2                !
 ! D41   D(15,4,5,8)            65.091          estimate D2E/DX2                !
 ! D42   D(15,4,5,17)          -50.8349         estimate D2E/DX2                !
 ! D43   D(16,4,5,6)            65.4455         estimate D2E/DX2                !
 ! D44   D(16,4,5,8)           -50.671          estimate D2E/DX2                !
 ! D45   D(16,4,5,17)         -166.5969         estimate D2E/DX2                !
 ! D46   D(4,5,6,7)             59.1055         estimate D2E/DX2                !
 ! D47   D(4,5,6,18)           -64.5405         estimate D2E/DX2                !
 ! D48   D(4,5,6,19)           179.7563         estimate D2E/DX2                !
 ! D49   D(8,5,6,7)            175.2114         estimate D2E/DX2                !
 ! D50   D(8,5,6,18)            51.5654         estimate D2E/DX2                !
 ! D51   D(8,5,6,19)           -64.1378         estimate D2E/DX2                !
 ! D52   D(17,5,6,7)           -68.8347         estimate D2E/DX2                !
 ! D53   D(17,5,6,18)          167.5193         estimate D2E/DX2                !
 ! D54   D(17,5,6,19)           51.8161         estimate D2E/DX2                !
 ! D55   D(4,5,8,22)           -58.4656         estimate D2E/DX2                !
 ! D56   D(4,5,8,23)            61.5018         estimate D2E/DX2                !
 ! D57   D(4,5,8,24)          -178.5381         estimate D2E/DX2                !
 ! D58   D(6,5,8,22)           178.5372         estimate D2E/DX2                !
 ! D59   D(6,5,8,23)           -61.4954         estimate D2E/DX2                !
 ! D60   D(6,5,8,24)            58.4647         estimate D2E/DX2                !
 ! D61   D(17,5,8,22)           60.0109         estimate D2E/DX2                !
 ! D62   D(17,5,8,23)          179.9783         estimate D2E/DX2                !
 ! D63   D(17,5,8,24)          -60.0616         estimate D2E/DX2                !
 ! D64   D(5,6,7,1)             29.8199         estimate D2E/DX2                !
 ! D65   D(5,6,7,20)           -94.496          estimate D2E/DX2                !
 ! D66   D(5,6,7,21)           151.7856         estimate D2E/DX2                !
 ! D67   D(18,6,7,1)           154.0685         estimate D2E/DX2                !
 ! D68   D(18,6,7,20)           29.7525         estimate D2E/DX2                !
 ! D69   D(18,6,7,21)          -83.9658         estimate D2E/DX2                !
 ! D70   D(19,6,7,1)           -90.2033         estimate D2E/DX2                !
 ! D71   D(19,6,7,20)          145.4808         estimate D2E/DX2                !
 ! D72   D(19,6,7,21)           31.7624         estimate D2E/DX2                !
 --------------------------------------------------------------------------------
 Trust Radius=3.00D-01 FncErr=1.00D-07 GrdErr=1.00D-06
 Number of steps in this run=    144 maximum allowed number of steps=    144.
 GradGradGradGradGradGradGradGradGradGradGradGradGradGradGradGradGradGrad

                          Input orientation:                          
 ---------------------------------------------------------------------
 Center     Atomic      Atomic             Coordinates (Angstroms)
 Number     Number       Type             X           Y           Z
 ---------------------------------------------------------------------
      1          6           0        1.817585    0.283887    0.041581
      2          6           0        1.171282    0.966567    1.267726
      3          6           0       -0.205390    1.611201    1.041619
      4          6           0       -1.346873    0.610412    0.796196
      5          6           0       -0.921580   -0.680264    0.090676
      6          6           0       -0.261218   -0.504188   -1.279702
      7          6           0        1.019384    0.348010   -1.270076
      8          7           0       -2.198539   -1.431567   -0.173371
      9          1           0        2.813391    0.758235   -0.141350
     10          1           0        2.043077   -0.784782    0.271255
     11          1           0        1.864029    1.765478    1.631172
     12          1           0        1.092828    0.241477    2.112641
     13          1           0       -0.142703    2.342460    0.203719
     14          1           0       -0.470246    2.231930    1.932704
     15          1           0       -1.787342    0.323691    1.782764
     16          1           0       -2.158256    1.116695    0.220732
     17          1           0       -0.295395   -1.315139    0.759541
     18          1           0       -0.987122   -0.065694   -2.005279
     19          1           0       -0.006384   -1.523641   -1.661087
     20          1           0        0.784035    1.409500   -1.512214
     21          1           0        1.671192    0.009354   -2.112641
     22          1           0       -2.691669   -1.608902    0.730686
     23          1           0       -2.813391   -0.864236   -0.799528
     24          1           0       -1.977572   -2.342460   -0.635301
 ---------------------------------------------------------------------
                    Distance matrix (angstroms):
                    1          2          3          4          5
     1  C    0.000000
     2  C    1.545054   0.000000
     3  C    2.618065   1.536848   0.000000
     4  C    3.269535   2.586560   1.537789   0.000000
     5  C    2.904311   2.911627   2.582253   1.531169   0.000000
     6  C    2.586170   3.271783   3.141101   2.594288   1.531345
     7  C    1.536776   2.616510   2.905109   3.152381   2.583860
     8  N    4.372441   4.379897   3.835007   2.415590   1.504926
     9  H    1.118078   2.173803   3.352612   4.267158   4.009130
    10  H    1.116087   2.195496   3.374878   3.703227   2.971990
    11  H    2.173492   1.118146   2.157283   3.513012   4.014274
    12  H    2.194621   1.116150   2.169931   2.796655   2.999298
    13  H    2.847234   2.179851   1.113888   2.191129   3.123506
    14  H    3.550407   2.176684   1.117804   2.165513   3.475290
    15  H    4.003599   3.071158   2.170150   1.117827   2.149565
    16  H    4.066076   3.493502   2.175334   1.116165   2.185256
    17  H    2.745366   2.759633   2.941281   2.194242   1.114699
    18  H    3.489731   4.054236   3.564642   2.904273   2.185182
    19  H    3.081087   4.020694   4.143846   3.519848   2.148847
    20  H    2.179337   2.841517   2.746217   3.241615   3.137753
    21  H    2.176573   3.548668   4.004601   4.234539   3.471692
    22  H    4.938713   4.673740   4.080113   2.595789   2.098856
    23  H    4.844749   4.847989   4.039713   2.621373   2.098871
    24  H    4.664663   4.948379   4.645872   3.341619   2.098823
                    6          7          8          9         10
     6  C    0.000000
     7  C    1.538270   0.000000
     8  N    2.416032   3.837276   0.000000
     9  H    3.513229   2.158881   5.469525   0.000000
    10  H    2.791769   2.169531   4.313621   1.773282   0.000000
    11  H    4.259254   3.337646   5.475576   2.248924   2.895731
    12  H    3.727928   3.385191   4.342583   2.882334   2.312333
    13  H    3.212163   2.738676   4.314156   3.371548   3.815998
    14  H    4.224877   4.003243   4.565497   4.154004   4.263538
    15  H    3.520389   4.147063   2.660165   5.005775   4.264444
    16  H    2.911583   3.593158   2.578872   4.997687   4.611872
    17  H    2.194840   2.934971   2.122696   3.843831   2.447070
    18  H    1.116098   2.176635   2.586315   4.312423   3.857694
    19  H    1.117891   2.169831   2.650909   3.932898   2.912069
    20  H    2.192902   1.113903   4.331271   2.534107   3.095290
    21  H    2.166038   1.117791   4.562000   2.398214   2.540061
    22  H    3.342027   4.648061   1.044961   6.055532   4.827843
    23  H    2.621791   4.047360   1.044978   5.892901   4.973748
    24  H    2.596222   4.077170   1.044955   5.728143   4.406112
                   11         12         13         14         15
    11  H    0.000000
    12  H    1.774582   0.000000
    13  H    2.529329   3.095909   0.000000
    14  H    2.399446   2.537219   1.763205   0.000000
    15  H    3.928644   2.900165   3.045267   2.323489   0.000000
    16  H    4.311501   3.861978   2.359077   2.650278   1.790636
    17  H    3.861742   2.486181   3.702740   3.740131   2.441036
    18  H    4.970516   4.623615   3.375192   4.588458   3.891175
    19  H    5.015548   4.308704   4.294511   5.218699   4.294713
    20  H    3.342751   3.820891   2.161870   3.757269   4.318315
    21  H    4.139721   4.270994   3.754880   5.088263   5.218663
    22  H    5.740357   4.433522   4.731615   4.596907   2.378990
    23  H    5.890837   4.996186   4.292083   4.747806   3.021950
    24  H    6.063823   4.863669   5.100899   5.458180   3.604384
                   16         17         18         19         20
    16  H    0.000000
    17  H    3.110367   0.000000
    18  H    2.779339   3.111885   0.000000
    19  H    3.891423   2.446720   1.790510   0.000000
    20  H    3.427231   3.708058   2.357182   3.041421   0.000000
    21  H    4.619037   3.724403   2.661539   2.316945   1.762943
    22  H    2.823732   2.414386   3.573860   3.597027   5.120729
    23  H    2.322546   2.995716   2.329541   3.009383   4.315005
    24  H    3.568080   2.414683   2.835753   2.368181   4.740533
                   21         22         23         24
    21  H    0.000000
    22  H    5.453239   0.000000
    23  H    4.753831   1.706136   0.000000
    24  H    4.585525   1.707033   1.706080   0.000000
 Stoichiometry    C7H16N(1+)
 Framework group  C1[X(C7H16N)]
 Deg. of freedom    66
 Full point group                 C1      NOp   1
 Largest Abelian subgroup         C1      NOp   1
 Largest concise Abelian subgroup C1      NOp   1
                         Standard orientation:                         
 ---------------------------------------------------------------------
 Center     Atomic      Atomic             Coordinates (Angstroms)
 Number     Number       Type             X           Y           Z
 ---------------------------------------------------------------------
      1          6           0       -1.755999   -0.771699   -0.534419
      2          6           0       -1.763202    0.773295   -0.523024
      3          6           0       -0.895919    1.450715    0.549742
      4          6           0        0.619338    1.299880    0.335173
      5          6           0        1.038474   -0.001209   -0.354733
      6          6           0        0.617637   -1.294369    0.349290
      7          6           0       -0.899867   -1.454385    0.543847
      8          7           0        2.543162   -0.001741   -0.327969
      9          1           0       -2.808141   -1.129654   -0.412086
     10          1           0       -1.436395   -1.147085   -1.535713
     11          1           0       -2.816289    1.118957   -0.375454
     12          1           0       -1.464892    1.165046   -1.524690
     13          1           0       -1.185258    1.073852    1.557215
     14          1           0       -1.137630    2.541614    0.581358
     15          1           0        0.974813    2.146766   -0.301977
     16          1           0        1.138670    1.401478    1.317922
     17          1           0        0.725712   -0.006424   -1.424643
     18          1           0        1.124406   -1.377734    1.340204
     19          1           0        0.988041   -2.147811   -0.270483
     20          1           0       -1.205430   -1.087913    1.550381
     21          1           0       -1.136799   -2.546614    0.562732
     22          1           0        2.900581    0.848952   -0.818394
     23          1           0        2.873936    0.003446    0.663263
     24          1           0        2.899769   -0.858056   -0.809101
 ---------------------------------------------------------------------
 Rotational constants (GHZ):      2.8318606      1.6836438      1.2540860
 Standard basis: 6-311++G(d,p) (5D, 7F)
 There are   296 symmetry adapted cartesian basis functions of A   symmetry.
 There are   288 symmetry adapted basis functions of A   symmetry.
   288 basis functions,   432 primitive gaussians,   296 cartesian basis functions
    32 alpha electrons       32 beta electrons
       nuclear repulsion energy       423.9852049475 Hartrees.
 NAtoms=   24 NActive=   24 NUniq=   24 SFac= 1.00D+00 NAtFMM=   60 NAOKFM=F Big=F
 Integral buffers will be    131072 words long.
 Raffenetti 2 integral format.
 Two-electron integral symmetry is turned on.
 One-electron integrals computed using PRISM.
 NBasis=   288 RedAO= T EigKep=  4.45D-06  NBF=   288
 NBsUse=   288 1.00D-06 EigRej= -1.00D+00 NBFU=   288
 ExpMin= 3.60D-02 ExpMax= 6.29D+03 ExpMxC= 9.49D+02 IAcc=3 IRadAn=         5 AccDes= 0.00D+00
 Harris functional with IExCor=  402 and IRadAn=       5 diagonalized for initial guess.
 HarFok:  IExCor=  402 AccDes= 0.00D+00 IRadAn=         5 IDoV= 1 UseB2=F ITyADJ=14
 ICtDFT=  3500011 ScaDFX=  1.000000  1.000000  1.000000  1.000000
 FoFCou: FMM=F IPFlag=           0 FMFlag=      100000 FMFlg1=           0
         NFxFlg=           0 DoJE=T BraDBF=F KetDBF=T FulRan=T
         wScrn=  0.000000 ICntrl=     500 IOpCl=  0 I1Cent=   200000004 NGrid=           0
         NMat0=    1 NMatS0=      1 NMatT0=    0 NMatD0=    1 NMtDS0=    0 NMtDT0=    0
 Petite list used in FoFCou.
 Keep R1 ints in memory in canonical form, NReq=879354982.
 Requested convergence on RMS density matrix=1.00D-08 within 128 cycles.
 Requested convergence on MAX density matrix=1.00D-06.
 Requested convergence on             energy=1.00D-06.
 No special actions if energy rises.
 SCF Done:  E(RB3LYP) =  -330.984177709     A.U. after   12 cycles
            NFock= 12  Conv=0.63D-08     -V/T= 2.0060

 **********************************************************************

            Population analysis using the SCF density.

 **********************************************************************

 Orbital symmetries:
       Occupied  (A) (A) (A) (A) (A) (A) (A) (A) (A) (A) (A) (A)
                 (A) (A) (A) (A) (A) (A) (A) (A) (A) (A) (A) (A)
                 (A) (A) (A) (A) (A) (A) (A) (A)
       Virtual   (A) (A) (A) (A) (A) (A) (A) (A) (A) (A) (A) (A)
                 (A) (A) (A) (A) (A) (A) (A) (A) (A) (A) (A) (A)
                 (A) (A) (A) (A) (A) (A) (A) (A) (A) (A) (A) (A)
                 (A) (A) (A) (A) (A) (A) (A) (A) (A) (A) (A) (A)
                 (A) (A) (A) (A) (A) (A) (A) (A) (A) (A) (A) (A)
                 (A) (A) (A) (A) (A) (A) (A) (A) (A) (A) (A) (A)
                 (A) (A) (A) (A) (A) (A) (A) (A) (A) (A) (A) (A)
                 (A) (A) (A) (A) (A) (A) (A) (A) (A) (A) (A) (A)
                 (A) (A) (A) (A) (A) (A) (A) (A) (A) (A) (A) (A)
                 (A) (A) (A) (A) (A) (A) (A) (A) (A) (A) (A) (A)
                 (A) (A) (A) (A) (A) (A) (A) (A) (A) (A) (A) (A)
                 (A) (A) (A) (A) (A) (A) (A) (A) (A) (A) (A) (A)
                 (A) (A) (A) (A) (A) (A) (A) (A) (A) (A) (A) (A)
                 (A) (A) (A) (A) (A) (A) (A) (A) (A) (A) (A) (A)
                 (A) (A) (A) (A) (A) (A) (A) (A) (A) (A) (A) (A)
                 (A) (A) (A) (A) (A) (A) (A) (A) (A) (A) (A) (A)
                 (A) (A) (A) (A) (A) (A) (A) (A) (A) (A) (A) (A)
                 (A) (A) (A) (A) (A) (A) (A) (A) (A) (A) (A) (A)
                 (A) (A) (A) (A) (A) (A) (A) (A) (A) (A) (A) (A)
                 (A) (A) (A) (A) (A) (A) (A) (A) (A) (A) (A) (A)
                 (A) (A) (A) (A) (A) (A) (A) (A) (A) (A) (A) (A)
                 (A) (A) (A) (A)
 The electronic state is 1-A.
 Alpha  occ. eigenvalues --  -14.62907 -10.41066 -10.34172 -10.34162 -10.30953
 Alpha  occ. eigenvalues --  -10.30951 -10.29725 -10.29702  -1.19243  -0.98633
 Alpha  occ. eigenvalues --   -0.91522  -0.90870  -0.81969  -0.81472  -0.77966
 Alpha  occ. eigenvalues --   -0.75503  -0.71589  -0.67946  -0.67901  -0.64113
 Alpha  occ. eigenvalues --   -0.58330  -0.58157  -0.55950  -0.55626  -0.55326
 Alpha  occ. eigenvalues --   -0.54058  -0.50628  -0.48555  -0.47321  -0.45521
 Alpha  occ. eigenvalues --   -0.45264  -0.44003
 Alpha virt. eigenvalues --   -0.19278  -0.14707  -0.13950  -0.13159  -0.10670
 Alpha virt. eigenvalues --   -0.09336  -0.09263  -0.09048  -0.08425  -0.07805
 Alpha virt. eigenvalues --   -0.06344  -0.05818  -0.05543  -0.04907  -0.04865
 Alpha virt. eigenvalues --   -0.04812  -0.03597  -0.03099  -0.02187  -0.01087
 Alpha virt. eigenvalues --   -0.00972  -0.00935  -0.00037   0.00249   0.00756
 Alpha virt. eigenvalues --    0.00954   0.01645   0.01760   0.01949   0.02440
 Alpha virt. eigenvalues --    0.02731   0.03040   0.03142   0.03406   0.03841
 Alpha virt. eigenvalues --    0.03960   0.04931   0.05111   0.05318   0.05581
 Alpha virt. eigenvalues --    0.06295   0.06315   0.06931   0.07136   0.08202
 Alpha virt. eigenvalues --    0.08235   0.08551   0.09495   0.09529   0.10222
 Alpha virt. eigenvalues --    0.10726   0.11049   0.11654   0.12463   0.13757
 Alpha virt. eigenvalues --    0.14025   0.14372   0.14511   0.15812   0.16996
 Alpha virt. eigenvalues --    0.17836   0.19157   0.19675   0.20844   0.21041
 Alpha virt. eigenvalues --    0.22749   0.23407   0.23490   0.25174   0.25753
 Alpha virt. eigenvalues --    0.26010   0.27600   0.31549   0.32897   0.34034
 Alpha virt. eigenvalues --    0.35212   0.35827   0.36539   0.37101   0.37976
 Alpha virt. eigenvalues --    0.38266   0.39748   0.40708   0.45109   0.45313
 Alpha virt. eigenvalues --    0.47068   0.48495   0.49249   0.49468   0.49971
 Alpha virt. eigenvalues --    0.51226   0.51626   0.52680   0.53316   0.54485
 Alpha virt. eigenvalues --    0.55097   0.55731   0.57629   0.57935   0.58159
 Alpha virt. eigenvalues --    0.59553   0.61892   0.62259   0.62632   0.63519
 Alpha virt. eigenvalues --    0.63673   0.64741   0.65561   0.66102   0.66791
 Alpha virt. eigenvalues --    0.68669   0.72044   0.75529   0.77874   0.84410
 Alpha virt. eigenvalues --    0.86396   0.88567   0.94587   0.95499   0.98219
 Alpha virt. eigenvalues --    0.99555   1.01091   1.02611   1.05673   1.09333
 Alpha virt. eigenvalues --    1.12942   1.13145   1.17415   1.19391   1.21836
 Alpha virt. eigenvalues --    1.24797   1.27274   1.27969   1.33178   1.34676
 Alpha virt. eigenvalues --    1.36371   1.38551   1.39966   1.40252   1.42602
 Alpha virt. eigenvalues --    1.43754   1.44831   1.46277   1.48042   1.49096
 Alpha virt. eigenvalues --    1.51104   1.52930   1.53534   1.53700   1.54767
 Alpha virt. eigenvalues --    1.55067   1.56380   1.59217   1.59529   1.61725
 Alpha virt. eigenvalues --    1.62517   1.62666   1.64268   1.66503   1.67412
 Alpha virt. eigenvalues --    1.67744   1.69121   1.71245   1.71783   1.73347
 Alpha virt. eigenvalues --    1.74537   1.78290   1.82690   1.85736   1.86583
 Alpha virt. eigenvalues --    1.89439   1.92436   1.92925   1.96597   1.97008
 Alpha virt. eigenvalues --    2.00789   2.01393   2.03365   2.05542   2.06162
 Alpha virt. eigenvalues --    2.11088   2.11668   2.14874   2.15244   2.17165
 Alpha virt. eigenvalues --    2.18461   2.20621   2.25370   2.26424   2.29152
 Alpha virt. eigenvalues --    2.30758   2.31200   2.34906   2.36432   2.39556
 Alpha virt. eigenvalues --    2.39887   2.40734   2.44978   2.45198   2.47499
 Alpha virt. eigenvalues --    2.48713   2.51282   2.53712   2.55305   2.57276
 Alpha virt. eigenvalues --    2.57323   2.60104   2.61004   2.61192   2.62571
 Alpha virt. eigenvalues --    2.65985   2.66200   2.70286   2.70510   2.72317
 Alpha virt. eigenvalues --    2.75579   2.76379   2.78312   2.79773   2.82943
 Alpha virt. eigenvalues --    2.84831   2.84876   2.85140   2.87603   2.95848
 Alpha virt. eigenvalues --    3.00196   3.04094   3.16129   3.18871   3.25927
 Alpha virt. eigenvalues --    3.32523   3.36374   3.46765   3.51339   3.53996
 Alpha virt. eigenvalues --    3.74957   3.75605   3.82856   3.84460   3.92404
 Alpha virt. eigenvalues --    3.96246   3.97177   4.08594   4.11619   4.32239
 Alpha virt. eigenvalues --    4.40065   4.42827   4.52720  23.59079  23.68785
 Alpha virt. eigenvalues --   23.71067  23.71447  23.76318  23.77338  23.84078
 Alpha virt. eigenvalues --   35.30256
          Condensed to atoms (all electrons):
               1          2          3          4          5          6
     1  C    5.717956  -0.033786   0.000636   0.002115  -0.057153   0.125187
     2  C   -0.033786   5.731758  -0.076592   0.124238  -0.049518   0.001439
     3  C    0.000636  -0.076592   6.136013  -0.635299   0.170753   0.196210
     4  C    0.002115   0.124238  -0.635299   6.973230  -0.693713   0.073983
     5  C   -0.057153  -0.049518   0.170753  -0.693713   6.867140  -0.655909
     6  C    0.125187   0.001439   0.196210   0.073983  -0.655909   6.924594
     7  C   -0.071357   0.004594  -0.351068   0.196847   0.165190  -0.630846
     8  N    0.001974   0.002359  -0.047694  -0.060213   0.005154  -0.065682
     9  H    0.433593  -0.055229   0.024267  -0.007239   0.007506   0.000865
    10  H    0.485573  -0.102862  -0.007481   0.013091   0.001064  -0.059810
    11  H   -0.053829   0.433304  -0.063513  -0.000282   0.007857  -0.007954
    12  H   -0.098926   0.481403   0.022122  -0.060975   0.001933   0.013549
    13  H   -0.016863  -0.050827   0.618575  -0.172165   0.005373   0.032308
    14  H   -0.010065  -0.032101   0.409467  -0.057565   0.025842  -0.006301
    15  H   -0.011747   0.016857   0.009651   0.406005  -0.041423   0.010511
    16  H    0.010397  -0.008263  -0.103013   0.397421   0.086638  -0.118699
    17  H    0.013435   0.014551  -0.031821  -0.134993   0.501789  -0.133025
    18  H   -0.008529   0.011041   0.021662  -0.123488   0.095381   0.396863
    19  H    0.017902  -0.011786   0.001610   0.013798  -0.049336   0.409125
    20  H   -0.049674  -0.016947  -0.040001   0.031143   0.004060  -0.169126
    21  H   -0.034446  -0.009470   0.007554  -0.006927   0.027817  -0.061746
    22  H    0.001393  -0.000831   0.011510  -0.015773   0.010594   0.030578
    23  H    0.000475   0.000640  -0.003631  -0.005799   0.019361  -0.005994
    24  H   -0.000632   0.001040  -0.002697   0.030357   0.009003  -0.015175
               7          8          9         10         11         12
     1  C   -0.071357   0.001974   0.433593   0.485573  -0.053829  -0.098926
     2  C    0.004594   0.002359  -0.055229  -0.102862   0.433304   0.481403
     3  C   -0.351068  -0.047694   0.024267  -0.007481  -0.063513   0.022122
     4  C    0.196847  -0.060213  -0.007239   0.013091  -0.000282  -0.060975
     5  C    0.165190   0.005154   0.007506   0.001064   0.007857   0.001933
     6  C   -0.630846  -0.065682   0.000865  -0.059810  -0.007954   0.013549
     7  C    6.140542  -0.047197  -0.064471   0.020513   0.024433  -0.008950
     8  N   -0.047197   6.376453  -0.000694  -0.002522  -0.000721  -0.002504
     9  H   -0.064471  -0.000694   0.472312  -0.003573  -0.006379   0.003941
    10  H    0.020513  -0.002522  -0.003573   0.517922   0.004091  -0.015936
    11  H    0.024433  -0.000721  -0.006379   0.004091   0.474542  -0.003865
    12  H   -0.008950  -0.002504   0.003941  -0.015936  -0.003865   0.516092
    13  H   -0.040346  -0.003023   0.001915  -0.000886   0.001986   0.004410
    14  H    0.007530  -0.005133  -0.000243  -0.002034  -0.006780   0.003002
    15  H    0.002027  -0.037240   0.000787   0.001350  -0.001352   0.002063
    16  H    0.021670   0.026422   0.000159  -0.000307  -0.001667  -0.004186
    17  H   -0.031174   0.044120  -0.002406  -0.012763  -0.002469  -0.012469
    18  H   -0.104252   0.024908  -0.001635  -0.004232   0.000107  -0.000172
    19  H    0.008824  -0.035945  -0.001284   0.002084   0.000813   0.001200
    20  H    0.617028  -0.002842   0.001890   0.004093   0.002047  -0.001047
    21  H    0.413608  -0.005269  -0.006626   0.003176  -0.000237  -0.002031
    22  H   -0.002734   0.295166  -0.000015  -0.000316   0.000142   0.000703
    23  H   -0.003704   0.343143  -0.000035   0.000028  -0.000032   0.000034
    24  H    0.011699   0.296214   0.000145   0.000720  -0.000016  -0.000349
              13         14         15         16         17         18
     1  C   -0.016863  -0.010065  -0.011747   0.010397   0.013435  -0.008529
     2  C   -0.050827  -0.032101   0.016857  -0.008263   0.014551   0.011041
     3  C    0.618575   0.409467   0.009651  -0.103013  -0.031821   0.021662
     4  C   -0.172165  -0.057565   0.406005   0.397421  -0.134993  -0.123488
     5  C    0.005373   0.025842  -0.041423   0.086638   0.501789   0.095381
     6  C    0.032308  -0.006301   0.010511  -0.118699  -0.133025   0.396863
     7  C   -0.040346   0.007530   0.002027   0.021670  -0.031174  -0.104252
     8  N   -0.003023  -0.005133  -0.037240   0.026422   0.044120   0.024908
     9  H    0.001915  -0.000243   0.000787   0.000159  -0.002406  -0.001635
    10  H   -0.000886  -0.002034   0.001350  -0.000307  -0.012763  -0.004232
    11  H    0.001986  -0.006780  -0.001352  -0.001667  -0.002469   0.000107
    12  H    0.004410   0.003002   0.002063  -0.004186  -0.012469  -0.000172
    13  H    0.495014  -0.005860   0.004922  -0.018543  -0.003961   0.000204
    14  H   -0.005860   0.470317  -0.002059  -0.002287   0.000734  -0.000311
    15  H    0.004922  -0.002059   0.579026  -0.063805  -0.036445  -0.003173
    16  H   -0.018543  -0.002287  -0.063805   0.583264   0.030137   0.009561
    17  H   -0.003961   0.000734  -0.036445   0.030137   0.536945   0.030271
    18  H    0.000204  -0.000311  -0.003173   0.009561   0.030271   0.581206
    19  H    0.000259  -0.000452  -0.002325  -0.003189  -0.036686  -0.064436
    20  H   -0.005831  -0.002039   0.000438   0.000100  -0.003936  -0.018596
    21  H   -0.002101   0.000377  -0.000508  -0.000126   0.001178  -0.001767
    22  H   -0.000023   0.000692   0.007985  -0.006602  -0.013150   0.000247
    23  H    0.000499  -0.000236   0.001750  -0.003219   0.000234  -0.003290
    24  H   -0.000203   0.000066   0.001498   0.000483  -0.012884  -0.006533
              19         20         21         22         23         24
     1  C    0.017902  -0.049674  -0.034446   0.001393   0.000475  -0.000632
     2  C   -0.011786  -0.016947  -0.009470  -0.000831   0.000640   0.001040
     3  C    0.001610  -0.040001   0.007554   0.011510  -0.003631  -0.002697
     4  C    0.013798   0.031143  -0.006927  -0.015773  -0.005799   0.030357
     5  C   -0.049336   0.004060   0.027817   0.010594   0.019361   0.009003
     6  C    0.409125  -0.169126  -0.061746   0.030578  -0.005994  -0.015175
     7  C    0.008824   0.617028   0.413608  -0.002734  -0.003704   0.011699
     8  N   -0.035945  -0.002842  -0.005269   0.295166   0.343143   0.296214
     9  H   -0.001284   0.001890  -0.006626  -0.000015  -0.000035   0.000145
    10  H    0.002084   0.004093   0.003176  -0.000316   0.000028   0.000720
    11  H    0.000813   0.002047  -0.000237   0.000142  -0.000032  -0.000016
    12  H    0.001200  -0.001047  -0.002031   0.000703   0.000034  -0.000349
    13  H    0.000259  -0.005831  -0.002101  -0.000023   0.000499  -0.000203
    14  H   -0.000452  -0.002039   0.000377   0.000692  -0.000236   0.000066
    15  H   -0.002325   0.000438  -0.000508   0.007985   0.001750   0.001498
    16  H   -0.003189   0.000100  -0.000126  -0.006602  -0.003219   0.000483
    17  H   -0.036686  -0.003936   0.001178  -0.013150   0.000234  -0.012884
    18  H   -0.064436  -0.018596  -0.001767   0.000247  -0.003290  -0.006533
    19  H    0.583378   0.004754  -0.002545   0.001662   0.001864   0.008359
    20  H    0.004754   0.492664  -0.005441  -0.000205   0.000473  -0.000022
    21  H   -0.002545  -0.005441   0.471021   0.000072  -0.000264   0.000770
    22  H    0.001662  -0.000205   0.000072   0.366867  -0.017327  -0.003564
    23  H    0.001864   0.000473  -0.000264  -0.017327   0.338516  -0.017433
    24  H    0.008359  -0.000022   0.000770  -0.003564  -0.017433   0.367094
 Mulliken charges:
               1
     1  C   -0.363632
     2  C   -0.375014
     3  C   -0.267220
     4  C   -0.287797
     5  C   -0.465403
     6  C   -0.284945
     7  C   -0.278405
     8  N   -0.099233
     9  H    0.202447
    10  H    0.159015
    11  H    0.199774
    12  H    0.160959
    13  H    0.155166
    14  H    0.215437
    15  H    0.155208
    16  H    0.167655
    17  H    0.294788
    18  H    0.168964
    19  H    0.152353
    20  H    0.157018
    21  H    0.213931
    22  H    0.332928
    23  H    0.353947
    24  H    0.332060
 Sum of Mulliken charges =   1.00000
 Mulliken charges with hydrogens summed into heavy atoms:
               1
     1  C   -0.002169
     2  C   -0.014281
     3  C    0.103383
     4  C    0.035066
     5  C   -0.170615
     6  C    0.036372
     7  C    0.092543
     8  N    0.919701
 Electronic spatial extent (au):  <R**2>=           1063.3590
 Charge=              1.0000 electrons
 Dipole moment (field-independent basis, Debye):
    X=              8.0538    Y=             -0.0059    Z=             -0.9868  Tot=              8.1140
 Quadrupole moment (field-independent basis, Debye-Ang):
   XX=            -20.7767   YY=            -45.2726   ZZ=            -46.9272
   XY=             -0.0105   XZ=             -3.6674   YZ=              0.0031
 Traceless Quadrupole moment (field-independent basis, Debye-Ang):
   XX=             16.8821   YY=             -7.6137   ZZ=             -9.2684
   XY=             -0.0105   XZ=             -3.6674   YZ=              0.0031
 Octapole moment (field-independent basis, Debye-Ang**2):
  XXX=             81.4627  YYY=             -0.0360  ZZZ=             -2.0178  XYY=              7.1706
  XXY=             -0.0874  XXZ=             -9.2870  XZZ=             12.4831  YZZ=              0.0417
  YYZ=             -1.5108  XYZ=             -0.0028
 Hexadecapole moment (field-independent basis, Debye-Ang**3):
 XXXX=           -496.6018 YYYY=           -446.3887 ZZZZ=           -172.0956 XXXY=              0.0002
 XXXZ=            -32.2370 YYYX=             -0.1496 YYYZ=              0.0904 ZZZX=             -8.9949
 ZZZY=             -0.1216 XXYY=           -180.8667 XXZZ=           -133.4832 YYZZ=           -107.4865
 XXYZ=              0.1492 YYXZ=            -10.7010 ZZXY=              0.0515
 N-N= 4.239852049475D+02 E-N=-1.603438465600D+03  KE= 3.289948227451D+02

 **********************************************************************

            Electrostatic Properties Using The SCF Density

 **********************************************************************

       Atomic Center    1 is at  -1.755999 -0.771699 -0.534419
       Atomic Center    2 is at  -1.763202  0.773295 -0.523024
       Atomic Center    3 is at  -0.895919  1.450715  0.549742
       Atomic Center    4 is at   0.619338  1.299880  0.335173
       Atomic Center    5 is at   1.038474 -0.001209 -0.354733
       Atomic Center    6 is at   0.617637 -1.294369  0.349290
       Atomic Center    7 is at  -0.899867 -1.454385  0.543847
       Atomic Center    8 is at   2.543162 -0.001741 -0.327969
       Atomic Center    9 is at  -2.808141 -1.129654 -0.412086
       Atomic Center   10 is at  -1.436395 -1.147085 -1.535713
       Atomic Center   11 is at  -2.816289  1.118957 -0.375454
       Atomic Center   12 is at  -1.464892  1.165046 -1.524690
       Atomic Center   13 is at  -1.185258  1.073852  1.557215
       Atomic Center   14 is at  -1.137630  2.541614  0.581358
       Atomic Center   15 is at   0.974813  2.146766 -0.301977
       Atomic Center   16 is at   1.138670  1.401478  1.317922
       Atomic Center   17 is at   0.725712 -0.006424 -1.424643
       Atomic Center   18 is at   1.124406 -1.377734  1.340204
       Atomic Center   19 is at   0.988041 -2.147811 -0.270483
       Atomic Center   20 is at  -1.205430 -1.087913  1.550381
       Atomic Center   21 is at  -1.136799 -2.546614  0.562732
       Atomic Center   22 is at   2.900581  0.848952 -0.818394
       Atomic Center   23 is at   2.873936  0.003446  0.663263
       Atomic Center   24 is at   2.899769 -0.858056 -0.809101
 -----------------------------------------------------------------

              Electrostatic Properties (Atomic Units)

 -----------------------------------------------------------------
    Center     Electric         -------- Electric Field --------
               Potential          X             Y             Z
 -----------------------------------------------------------------
    1 Atom    -14.647362     -0.002341     -0.001187     -0.000525
    2 Atom    -14.647475     -0.002356      0.001190     -0.000517
    3 Atom    -14.634916     -0.004624      0.001668      0.000763
    4 Atom    -14.604105     -0.004222      0.003687      0.000952
    5 Atom    -14.535956     -0.015503      0.000045      0.003343
    6 Atom    -14.603990     -0.004181     -0.003668      0.000987
    7 Atom    -14.634906     -0.004700     -0.001712      0.000720
    8 Atom    -18.082305     -0.004613     -0.000023     -0.001479
    9 Atom     -1.007772     -0.000503     -0.002125     -0.000236
   10 Atom     -1.004011     -0.000013     -0.002355     -0.004757
   11 Atom     -1.007926     -0.000521      0.002172     -0.000275
   12 Atom     -1.004101     -0.000196      0.002423     -0.004652
   13 Atom     -0.996001      0.000092     -0.001979      0.003746
   14 Atom     -0.994224     -0.000086      0.001715     -0.000708
   15 Atom     -0.958544      0.001661      0.004559     -0.002089
   16 Atom     -0.953027      0.003307     -0.000266      0.004766
   17 Atom     -0.918594      0.000919     -0.000075     -0.003305
   18 Atom     -0.953109      0.003272      0.000380      0.004795
   19 Atom     -0.958371      0.001704     -0.004561     -0.001959
   20 Atom     -0.996089      0.000130      0.001948      0.003752
   21 Atom     -0.994393     -0.000067     -0.001699     -0.000724
   22 Atom     -0.765137      0.007148      0.001736     -0.000409
   23 Atom     -0.763206      0.004466      0.000011      0.002135
   24 Atom     -0.765186      0.007167     -0.001737     -0.000418
 -----------------------------------------------------------------
 -----------------------------------------------------
    Center         ---- Electric Field Gradient ----
                     XX            YY            ZZ
 -----------------------------------------------------
    1 Atom     -500.218396   -500.305601   -500.271199
    2 Atom     -500.219156   -500.305672   -500.269020
    3 Atom     -500.373786   -500.175054   -500.199378
    4 Atom     -500.299282   -500.449495   -500.372404
    5 Atom     -501.166607   -500.358266   -500.386846
    6 Atom     -500.298861   -500.447399   -500.372294
    7 Atom     -500.374258   -500.173957   -500.196421
    8 Atom     -812.462346   -812.587551   -812.588087
    9 Atom       -2.006149     -1.708636     -1.667792
   10 Atom       -1.716324     -1.726834     -1.999285
   11 Atom       -2.006677     -1.706082     -1.670153
   12 Atom       -1.710658     -1.729852     -1.998495
   13 Atom       -1.708684     -1.723873     -1.999781
   14 Atom       -1.684683     -2.028428     -1.656714
   15 Atom       -1.716724     -1.892517     -1.799102
   16 Atom       -1.759275     -1.669872     -1.966427
   17 Atom       -1.709660     -1.660755     -2.017359
   18 Atom       -1.754792     -1.668685     -1.971449
   19 Atom       -1.720599     -1.896098     -1.792408
   20 Atom       -1.711359     -1.721101     -1.999141
   21 Atom       -1.684422     -2.029662     -1.656907
   22 Atom       -1.582156     -1.826607     -1.629901
   23 Atom       -1.569556     -1.524439     -1.928441
   24 Atom       -1.582023     -1.830654     -1.626309
 -----------------------------------------------------
 -----------------------------------------------------
    Center         ---- Electric Field Gradient ----
                     XY            XZ            YZ
 -----------------------------------------------------
    1 Atom        0.030609     -0.040992      0.015331
    2 Atom       -0.029348     -0.042453     -0.016480
    3 Atom        0.014136      0.020722     -0.027424
    4 Atom        0.013397      0.005028     -0.067763
    5 Atom        0.000336     -0.010829      0.000069
    6 Atom       -0.013362      0.006441      0.068114
    7 Atom       -0.015796      0.018274      0.027919
    8 Atom       -0.000064     -0.021008      0.000229
    9 Atom       -0.112962      0.040499      0.016806
   10 Atom        0.040398      0.105191     -0.114855
   11 Atom        0.108978      0.048625     -0.019107
   12 Atom       -0.039553      0.098262      0.120136
   13 Atom       -0.035336      0.088064      0.125365
   14 Atom        0.077902      0.001538     -0.008170
   15 Atom       -0.088787      0.078376      0.164971
   16 Atom       -0.005749     -0.162555     -0.029860
   17 Atom       -0.000465     -0.093943     -0.001756
   18 Atom        0.002549     -0.159934      0.024422
   19 Atom        0.093340      0.079483     -0.161656
   20 Atom        0.036282      0.093024     -0.121960
   21 Atom       -0.076304      0.000522      0.003831
   22 Atom       -0.126034      0.072722      0.171752
   23 Atom       -0.000691     -0.134092     -0.002122
   24 Atom        0.126577      0.071199     -0.169650
 -----------------------------------------------------
 -----------------------------------------------------
    Center         ---- Electric Field Gradient ----
                   ----       Eigenvalues       ----
 -----------------------------------------------------
    1 Atom     -500.330086   -500.272692   -500.192419
    2 Atom     -500.330384   -500.271443   -500.192022
    3 Atom     -500.377706   -500.213297   -500.157215
    4 Atom     -500.489953   -500.333153   -500.298076
    5 Atom     -501.166758   -500.386696   -500.358266
    6 Atom     -500.488777   -500.332112   -500.297666
    7 Atom     -500.377834   -500.211747   -500.155056
    8 Atom     -812.591516   -812.587539   -812.458929
    9 Atom       -2.049196     -1.671616     -1.661766
   10 Atom       -2.076487     -1.685571     -1.680384
   11 Atom       -2.049203     -1.671844     -1.661865
   12 Atom       -2.075154     -1.684655     -1.679197
   13 Atom       -2.072948     -1.684128     -1.675262
   14 Atom       -2.045436     -1.667857     -1.656532
   15 Atom       -2.058138     -1.683608     -1.666598
   16 Atom       -2.057761     -1.678279     -1.659535
   17 Atom       -2.043782     -1.683246     -1.660746
   18 Atom       -2.057622     -1.677920     -1.659383
   19 Atom       -2.058304     -1.684108     -1.666694
   20 Atom       -2.072647     -1.683916     -1.675038
   21 Atom       -2.045813     -1.668316     -1.656862
   22 Atom       -1.979464     -1.530385     -1.528815
   23 Atom       -1.973020     -1.524989     -1.524427
   24 Atom       -1.979575     -1.530487     -1.528923
 -----------------------------------------------------
 -----------------------------------------------------
    Center         ---- Electric Field Gradient ----
                       ( tensor representation )
                   3XX-RR        3YY-RR        3ZZ-RR
 -----------------------------------------------------
    1 Atom        0.046669     -0.040536     -0.006133
    2 Atom        0.045460     -0.041056     -0.004404
    3 Atom       -0.124380      0.074352      0.050028
    4 Atom        0.074445     -0.075768      0.001323
    5 Atom       -0.529367      0.278974      0.250394
    6 Atom        0.073990     -0.074548      0.000557
    7 Atom       -0.126046      0.074255      0.051791
    8 Atom        0.083648     -0.041556     -0.042092
    9 Atom       -0.211957      0.085556      0.126400
   10 Atom        0.097824      0.087313     -0.185137
   11 Atom       -0.212373      0.088222      0.124151
   12 Atom        0.102344      0.083150     -0.185493
   13 Atom        0.102095      0.086906     -0.189002
   14 Atom        0.105259     -0.238487      0.133228
   15 Atom        0.086057     -0.089736      0.003679
   16 Atom        0.039250      0.128652     -0.167902
   17 Atom        0.086264      0.135170     -0.221434
   18 Atom        0.043517      0.129624     -0.173140
   19 Atom        0.082436     -0.093063      0.010628
   20 Atom        0.099175      0.089433     -0.188607
   21 Atom        0.105909     -0.239332      0.133423
   22 Atom        0.097399     -0.147052      0.049654
   23 Atom        0.104589      0.149707     -0.254296
   24 Atom        0.097639     -0.150992      0.053353
 -----------------------------------------------------
 -----------------------------------------------------
    Center         ---- Electric Field Gradient ----
                       ( tensor representation )
                   ----       Eigenvalues       ----
 -----------------------------------------------------
    1 Atom       -0.065020     -0.007626      0.072646
    2 Atom       -0.065768     -0.006827      0.072595
    3 Atom       -0.128300      0.036109      0.092191
    4 Atom       -0.116226      0.040574      0.075652
    5 Atom       -0.529518      0.250544      0.278974
    6 Atom       -0.115925      0.040740      0.075186
    7 Atom       -0.129622      0.036466      0.093156
    8 Atom       -0.045521     -0.041544      0.087065
    9 Atom       -0.255003      0.122577      0.132426
   10 Atom       -0.262340      0.128576      0.133764
   11 Atom       -0.254899      0.122460      0.132439
   12 Atom       -0.262153      0.128347      0.133805
   13 Atom       -0.262169      0.126651      0.135517
   14 Atom       -0.255495      0.122085      0.133410
   15 Atom       -0.255356      0.119173      0.136183
   16 Atom       -0.259236      0.120246      0.138990
   17 Atom       -0.247857      0.112679      0.135179
   18 Atom       -0.259314      0.120389      0.138925
   19 Atom       -0.255269      0.118927      0.136341
   20 Atom       -0.262113      0.126618      0.135496
   21 Atom       -0.255482      0.122014      0.133468
   22 Atom       -0.299910      0.149169      0.150740
   23 Atom       -0.298874      0.149156      0.149718
   24 Atom       -0.299913      0.149174      0.150738
 -----------------------------------------------------
 Calling FoFJK, ICntrl=      2127 FMM=F ISym2X=0 I1Cent= 0 IOpClX= 0 NMat=1 NMatS=1 NMatT=0.
 ***** Axes restored to original set *****
 -------------------------------------------------------------------
 Center     Atomic                   Forces (Hartrees/Bohr)
 Number     Number              X              Y              Z
 -------------------------------------------------------------------
      1        6           0.018976709   -0.008124926   -0.005824313
      2        6           0.005649110    0.006506298    0.019741512
      3        6           0.001605722    0.019479241    0.002733955
      4        6          -0.009512188    0.003068872    0.010754445
      5        6           0.007291940    0.011739003   -0.002417164
      6        6           0.001741979   -0.008879925   -0.011527935
      7        6           0.010593158    0.010829575   -0.013201944
      8        7          -0.011340821   -0.018883880    0.004138122
      9        1          -0.013572815   -0.007777916    0.001321824
     10        1          -0.001137700    0.011440968   -0.002404749
     11        1          -0.010689427   -0.010911412   -0.003617646
     12        1           0.001738144    0.008312198   -0.008246633
     13        1          -0.001534680   -0.009708781    0.008612294
     14        1           0.003408783   -0.009239862   -0.011440077
     15        1           0.003619717    0.003280411   -0.010366611
     16        1           0.007697801   -0.006381805    0.004753264
     17        1          -0.009874064    0.006891754   -0.008949276
     18        1           0.005811081   -0.004709909    0.008198045
     19        1          -0.003239740    0.010552584    0.003137637
     20        1           0.000942144   -0.012641503    0.003385430
     21        1          -0.008854362    0.003564862    0.011708090
     22        1           0.002683524    0.000312656   -0.016581303
     23        1           0.007250220   -0.011258566    0.009840116
     24        1          -0.009254235    0.012540063    0.006252920
 -------------------------------------------------------------------
 Cartesian Forces:  Max     0.019741512 RMS     0.009121859

 GradGradGradGradGradGradGradGradGradGradGradGradGradGradGradGradGradGrad
 Berny optimization.
 FormGI is forming the generalized inverse of G from B-inverse, IUseBI=4.
 Internal  Forces:  Max     0.017032212 RMS     0.005143093
 Search for a local minimum.
 Step number   1 out of a maximum of  144
 All quantities printed in internal units (Hartrees-Bohrs-Radians)
 Mixed Optimization -- RFO/linear search
 Second derivative matrix not updated -- first step.
 ITU=  0
     Eigenvalues ---    0.00267   0.00304   0.00375   0.00420   0.00916
     Eigenvalues ---    0.01991   0.01999   0.03151   0.03265   0.03272
     Eigenvalues ---    0.03619   0.04441   0.04457   0.04518   0.04656
     Eigenvalues ---    0.04671   0.05187   0.05224   0.05286   0.05761
     Eigenvalues ---    0.05765   0.06210   0.06288   0.08593   0.08618
     Eigenvalues ---    0.08656   0.08687   0.08846   0.08918   0.08946
     Eigenvalues ---    0.09331   0.12503   0.12531   0.12780   0.15183
     Eigenvalues ---    0.16000   0.16000   0.16000   0.16082   0.17829
     Eigenvalues ---    0.19990   0.20882   0.26326   0.26513   0.27731
     Eigenvalues ---    0.28511   0.28700   0.28977   0.29136   0.31753
     Eigenvalues ---    0.31759   0.31779   0.31785   0.31788   0.31789
     Eigenvalues ---    0.31866   0.31956   0.31957   0.31963   0.31964
     Eigenvalues ---    0.32108   0.32190   0.32192   0.40580   0.40583
     Eigenvalues ---    0.40584
 RFO step:  Lambda=-1.38589874D-02 EMin= 2.67489851D-03
 Linear search not attempted -- first point.
 Iteration  1 RMS(Cart)=  0.03393189 RMS(Int)=  0.00074612
 Iteration  2 RMS(Cart)=  0.00108454 RMS(Int)=  0.00039619
 Iteration  3 RMS(Cart)=  0.00000084 RMS(Int)=  0.00039619
 Variable       Old X    -DE/DX   Delta X   Delta X   Delta X     New X
                                 (Linear)    (Quad)   (Total)
    R1        2.91973   0.00807   0.00000   0.02810   0.02799   2.94772
    R2        2.90409   0.00010   0.00000   0.00074   0.00069   2.90478
    R3        2.11286  -0.01560   0.00000  -0.04707  -0.04707   2.06579
    R4        2.10910  -0.01169   0.00000  -0.03504  -0.03504   2.07406
    R5        2.90422   0.00009   0.00000   0.00050   0.00045   2.90467
    R6        2.11299  -0.01559   0.00000  -0.04705  -0.04705   2.06594
    R7        2.10922  -0.01177   0.00000  -0.03530  -0.03530   2.07392
    R8        2.90600   0.00334   0.00000   0.01100   0.01101   2.91701
    R9        2.10494  -0.01294   0.00000  -0.03853  -0.03853   2.06642
   R10        2.11234  -0.01506   0.00000  -0.04539  -0.04539   2.06695
   R11        2.89349   0.00220   0.00000   0.00662   0.00672   2.90021
   R12        2.11239  -0.01142   0.00000  -0.03441  -0.03441   2.07797
   R13        2.10925  -0.01094   0.00000  -0.03282  -0.03282   2.07643
   R14        2.89382   0.00212   0.00000   0.00629   0.00639   2.90021
   R15        2.84390   0.01703   0.00000   0.05122   0.05122   2.89512
   R16        2.10648  -0.01484   0.00000  -0.04430  -0.04430   2.06217
   R17        2.90691   0.00354   0.00000   0.01177   0.01178   2.91869
   R18        2.10912  -0.01096   0.00000  -0.03287  -0.03287   2.07625
   R19        2.11251  -0.01143   0.00000  -0.03447  -0.03447   2.07804
   R20        2.10497  -0.01298   0.00000  -0.03866  -0.03866   2.06632
   R21        2.11232  -0.01507   0.00000  -0.04542  -0.04542   2.06690
   R22        1.97469  -0.01566   0.00000  -0.03732  -0.03732   1.93738
   R23        1.97472  -0.01628   0.00000  -0.03880  -0.03880   1.93592
   R24        1.97468  -0.01565   0.00000  -0.03729  -0.03729   1.93739
    A1        2.02822  -0.00133   0.00000  -0.00347  -0.00397   2.02425
    A2        1.89119   0.00163   0.00000   0.00996   0.01000   1.90120
    A3        1.92227   0.00027   0.00000   0.00387   0.00411   1.92638
    A4        1.88100  -0.00069   0.00000  -0.00841  -0.00823   1.87276
    A5        1.89709   0.00093   0.00000   0.00582   0.00598   1.90307
    A6        1.83377  -0.00080   0.00000  -0.00874  -0.00882   1.82495
    A7        2.03006  -0.00144   0.00000  -0.00414  -0.00463   2.02543
    A8        1.89072   0.00170   0.00000   0.01070   0.01074   1.90146
    A9        1.92102   0.00030   0.00000   0.00397   0.00421   1.92522
   A10        1.87874  -0.00065   0.00000  -0.00788  -0.00772   1.87103
   A11        1.89747   0.00095   0.00000   0.00575   0.00591   1.90339
   A12        1.83553  -0.00086   0.00000  -0.00937  -0.00945   1.82609
   A13        1.99921   0.00278   0.00000   0.01111   0.01124   2.01045
   A14        1.91307   0.00007   0.00000   0.00369   0.00359   1.91666
   A15        1.90487  -0.00123   0.00000  -0.00548  -0.00538   1.89949
   A16        1.92726  -0.00205   0.00000  -0.01254  -0.01251   1.91475
   A17        1.88887  -0.00082   0.00000  -0.00599  -0.00611   1.88276
   A18        1.82186   0.00108   0.00000   0.00892   0.00890   1.83076
   A19        1.99977   0.00077   0.00000   0.00332   0.00374   2.00351
   A20        1.89501  -0.00047   0.00000   0.00299   0.00282   1.89783
   A21        1.90359   0.00119   0.00000   0.00736   0.00722   1.91081
   A22        1.87539   0.00064   0.00000   0.00708   0.00682   1.88221
   A23        1.92485  -0.00210   0.00000  -0.01793  -0.01795   1.90690
   A24        1.85973  -0.00008   0.00000  -0.00301  -0.00294   1.85679
   A25        2.02105  -0.00056   0.00000   0.01861   0.01656   2.03761
   A26        1.84002   0.00316   0.00000   0.04406   0.04222   1.88224
   A27        1.93868  -0.00071   0.00000  -0.02480  -0.02418   1.91450
   A28        1.84035   0.00307   0.00000   0.04364   0.04179   1.88213
   A29        1.93929  -0.00071   0.00000  -0.02536  -0.02476   1.91453
   A30        1.87298  -0.00418   0.00000  -0.05430  -0.05331   1.81967
   A31        2.00104   0.00074   0.00000   0.00311   0.00353   2.00457
   A32        1.92460  -0.00209   0.00000  -0.01807  -0.01808   1.90652
   A33        1.87418   0.00063   0.00000   0.00711   0.00685   1.88103
   A34        1.90484   0.00120   0.00000   0.00782   0.00768   1.91252
   A35        1.89397  -0.00043   0.00000   0.00297   0.00279   1.89676
   A36        1.85955  -0.00009   0.00000  -0.00311  -0.00305   1.85650
   A37        1.99832   0.00271   0.00000   0.01093   0.01106   2.00938
   A38        1.91244   0.00011   0.00000   0.00411   0.00401   1.91645
   A39        1.90482  -0.00118   0.00000  -0.00526  -0.00516   1.89966
   A40        1.92909  -0.00208   0.00000  -0.01309  -0.01306   1.91604
   A41        1.88902  -0.00080   0.00000  -0.00597  -0.00609   1.88293
   A42        1.82148   0.00108   0.00000   0.00903   0.00901   1.83049
   A43        1.91065   0.00668   0.00000   0.03998   0.03931   1.94997
   A44        1.91066   0.00188   0.00000   0.00758   0.00748   1.91813
   A45        1.91061   0.00671   0.00000   0.04021   0.03954   1.95015
   A46        1.91015  -0.00477   0.00000  -0.03071  -0.03081   1.87934
   A47        1.91167  -0.00572   0.00000  -0.02649  -0.02762   1.88405
   A48        1.91006  -0.00477   0.00000  -0.03060  -0.03070   1.87936
    D1        0.01695   0.00002   0.00000   0.00053   0.00052   0.01748
    D2       -2.10076   0.00053   0.00000   0.00536   0.00548  -2.09527
    D3        2.18427   0.00045   0.00000   0.00849   0.00852   2.19279
    D4        2.13672  -0.00053   0.00000  -0.00511  -0.00524   2.13149
    D5        0.01902  -0.00002   0.00000  -0.00028  -0.00028   0.01874
    D6       -1.97914  -0.00010   0.00000   0.00285   0.00276  -1.97639
    D7       -2.14947  -0.00043   0.00000  -0.00795  -0.00799  -2.15746
    D8        2.01601   0.00008   0.00000  -0.00312  -0.00303   2.01298
    D9        0.01785   0.00000   0.00000   0.00001   0.00001   0.01786
   D10       -1.21865   0.00041   0.00000  -0.00260  -0.00278  -1.22143
   D11        0.95989  -0.00024   0.00000  -0.00852  -0.00863   0.95126
   D12        2.94447   0.00047   0.00000   0.00157   0.00143   2.94590
   D13        2.93936  -0.00028   0.00000  -0.00671  -0.00676   2.93259
   D14       -1.16529  -0.00093   0.00000  -0.01264  -0.01261  -1.17789
   D15        0.81930  -0.00022   0.00000  -0.00255  -0.00255   0.81674
   D16        0.96069   0.00054   0.00000   0.00486   0.00475   0.96544
   D17        3.13923  -0.00011   0.00000  -0.00106  -0.00109   3.13814
   D18       -1.15937   0.00060   0.00000   0.00903   0.00896  -1.15041
   D19        1.20998  -0.00041   0.00000   0.00200   0.00219   1.21217
   D20       -0.96729   0.00017   0.00000   0.00739   0.00750  -0.95980
   D21       -2.95270  -0.00049   0.00000  -0.00223  -0.00209  -2.95478
   D22       -2.94916   0.00033   0.00000   0.00703   0.00708  -2.94207
   D23        1.15675   0.00091   0.00000   0.01242   0.01240   1.16915
   D24       -0.82865   0.00025   0.00000   0.00281   0.00281  -0.82584
   D25       -0.96939  -0.00053   0.00000  -0.00504  -0.00493  -0.97432
   D26        3.13652   0.00005   0.00000   0.00035   0.00038   3.13690
   D27        1.15112  -0.00060   0.00000  -0.00927  -0.00921   1.14192
   D28       -0.54497  -0.00130   0.00000  -0.02248  -0.02226  -0.56723
   D29        1.55130  -0.00031   0.00000  -0.00908  -0.00895   1.54235
   D30       -2.71192  -0.00002   0.00000  -0.00705  -0.00698  -2.71890
   D31        1.62479  -0.00074   0.00000  -0.01918  -0.01906   1.60573
   D32       -2.56212   0.00025   0.00000  -0.00578  -0.00575  -2.56787
   D33       -0.54217   0.00053   0.00000  -0.00375  -0.00378  -0.54594
   D34       -2.67422  -0.00097   0.00000  -0.01844  -0.01829  -2.69251
   D35       -0.57794   0.00001   0.00000  -0.00504  -0.00499  -0.58293
   D36        1.44201   0.00030   0.00000  -0.00301  -0.00301   1.43900
   D37       -1.01338   0.00223   0.00000   0.03466   0.03472  -0.97866
   D38       -3.03999  -0.00340   0.00000  -0.05913  -0.05937  -3.09936
   D39        1.21990   0.00011   0.00000  -0.00760  -0.00757   1.21234
   D40       -3.12052   0.00188   0.00000   0.02365   0.02373  -3.09679
   D41        1.13605  -0.00375   0.00000  -0.07015  -0.07036   1.06569
   D42       -0.88724  -0.00025   0.00000  -0.01862  -0.01855  -0.90579
   D43        1.14224   0.00272   0.00000   0.03270   0.03286   1.17510
   D44       -0.88438  -0.00291   0.00000  -0.06110  -0.06122  -0.94560
   D45       -2.90766   0.00059   0.00000  -0.00956  -0.00942  -2.91708
   D46        1.03159  -0.00229   0.00000  -0.03483  -0.03487   0.99671
   D47       -1.12644  -0.00278   0.00000  -0.03317  -0.03333  -1.15978
   D48        3.13734  -0.00192   0.00000  -0.02397  -0.02405   3.11329
   D49        3.05802   0.00339   0.00000   0.05922   0.05945   3.11747
   D50        0.89999   0.00290   0.00000   0.06087   0.06100   0.96098
   D51       -1.11942   0.00376   0.00000   0.07008   0.07028  -1.04913
   D52       -1.20139  -0.00016   0.00000   0.00715   0.00712  -1.19427
   D53        2.92376  -0.00065   0.00000   0.00881   0.00866   2.93243
   D54        0.90436   0.00021   0.00000   0.01801   0.01795   0.92231
   D55       -1.02042   0.00186   0.00000   0.04160   0.04278  -0.97764
   D56        1.07341   0.00125   0.00000   0.03310   0.03401   1.10742
   D57       -3.11608   0.00067   0.00000   0.02488   0.02552  -3.09056
   D58        3.11606  -0.00067   0.00000  -0.02451  -0.02515   3.09092
   D59       -1.07330  -0.00127   0.00000  -0.03300  -0.03391  -1.10721
   D60        1.02040  -0.00186   0.00000  -0.04123  -0.04240   0.97800
   D61        1.04739   0.00062   0.00000   0.00899   0.00926   1.05664
   D62        3.14121   0.00001   0.00000   0.00050   0.00049  -3.14148
   D63       -1.04827  -0.00057   0.00000  -0.00773  -0.00800  -1.05627
   D64        0.52046   0.00124   0.00000   0.02184   0.02162   0.54207
   D65       -1.64927   0.00070   0.00000   0.01855   0.01843  -1.63084
   D66        2.64916   0.00096   0.00000   0.01798   0.01783   2.66699
   D67        2.68900  -0.00003   0.00000   0.00643   0.00636   2.69536
   D68        0.51928  -0.00057   0.00000   0.00314   0.00317   0.52245
   D69       -1.46548  -0.00032   0.00000   0.00257   0.00257  -1.46291
   D70       -1.57434   0.00027   0.00000   0.00857   0.00844  -1.56590
   D71        2.53912  -0.00027   0.00000   0.00528   0.00525   2.54437
   D72        0.55436  -0.00002   0.00000   0.00471   0.00466   0.55902
         Item               Value     Threshold  Converged?
 Maximum Force            0.017032     0.000450     NO 
 RMS     Force            0.005143     0.000300     NO 
 Maximum Displacement     0.199542     0.001800     NO 
 RMS     Displacement     0.033582     0.001200     NO 
 Predicted change in Energy=-7.591419D-03
 GradGradGradGradGradGradGradGradGradGradGradGradGradGradGradGradGradGrad

                          Input orientation:                          
 ---------------------------------------------------------------------
 Center     Atomic      Atomic             Coordinates (Angstroms)
 Number     Number       Type             X           Y           Z
 ---------------------------------------------------------------------
      1          6           0        1.836337    0.282221    0.043369
      2          6           0        1.184389    0.971825    1.281348
      3          6           0       -0.188062    1.622844    1.046426
      4          6           0       -1.348314    0.636709    0.793259
      5          6           0       -0.949769   -0.651416    0.060269
      6          6           0       -0.255082   -0.486365   -1.298241
      7          6           0        1.037788    0.358063   -1.267881
      8          7           0       -2.220349   -1.478657   -0.159773
      9          1           0        2.812225    0.738022   -0.143466
     10          1           0        2.060717   -0.768905    0.265610
     11          1           0        1.855217    1.754261    1.646003
     12          1           0        1.106551    0.262666    2.115299
     13          1           0       -0.123446    2.336153    0.220134
     14          1           0       -0.446198    2.227673    1.920444
     15          1           0       -1.787291    0.351976    1.760411
     16          1           0       -2.143466    1.143486    0.229108
     17          1           0       -0.335122   -1.271746    0.714669
     18          1           0       -0.963091   -0.049986   -2.016191
     19          1           0       -0.011163   -1.490350   -1.674740
     20          1           0        0.804221    1.400833   -1.499622
     21          1           0        1.676636    0.023866   -2.090367
     22          1           0       -2.708499   -1.666245    0.722036
     23          1           0       -2.866286   -0.969829   -0.770795
     24          1           0       -2.014822   -2.379075   -0.604846
 ---------------------------------------------------------------------
                    Distance matrix (angstroms):
                    1          2          3          4          5
     1  C    0.000000
     2  C    1.559866   0.000000
     3  C    2.627087   1.537087   0.000000
     4  C    3.290897   2.600984   1.543613   0.000000
     5  C    2.938427   2.946282   2.593253   1.534725   0.000000
     6  C    2.600899   3.294340   3.154476   2.613585   1.534726
     7  C    1.537143   2.626169   2.908332   3.165347   2.594882
     8  N    4.427038   4.435531   3.899284   2.478606   1.532031
     9  H    1.093169   2.175916   3.346712   4.265888   4.015551
    10  H    1.097545   2.197685   3.374485   3.725005   3.019768
    11  H    2.176165   1.093247   2.133484   3.498387   4.021167
    12  H    2.196785   1.097470   2.160693   2.813194   3.047482
    13  H    2.844403   2.167486   1.093501   2.171839   3.103858
    14  H    3.538101   2.155089   1.093782   2.148378   3.464533
    15  H    4.010459   3.073206   2.163888   1.099617   2.144463
    16  H    4.076164   3.494466   2.172878   1.098797   2.162196
    17  H    2.753306   2.768330   2.917249   2.162160   1.091256
    18  H    3.491267   4.065653   3.574724   2.917697   2.161847
    19  H    3.083369   4.028660   4.138600   3.521842   2.143606
    20  H    2.167343   2.839431   2.741583   3.236448   3.117928
    21  H    2.155245   3.536863   3.984132   4.223885   3.461105
    22  H    4.991257   4.735696   4.156433   2.675589   2.135636
    23  H    4.934082   4.938551   4.146942   2.707669   2.113077
    24  H    4.725898   5.002121   4.698841   3.390264   2.135772
                    6          7          8          9         10
     6  C    0.000000
     7  C    1.544504   0.000000
     8  N    2.478514   3.900884   0.000000
     9  H    3.498714   2.134784   5.499158   0.000000
    10  H    2.808627   2.160564   4.360301   1.732899   0.000000
    11  H    4.259383   3.332909   5.506617   2.269539   2.883415
    12  H    3.750646   3.385222   4.390492   2.870071   2.322912
    13  H    3.207709   2.734134   4.369680   3.362200   3.796581
    14  H    4.214554   3.982847   4.605627   4.134744   4.242945
    15  H    3.522192   4.141456   2.688097   4.992928   4.277613
    16  H    2.924928   3.602532   2.651938   4.986189   4.618845
    17  H    2.162184   2.910612   2.088431   3.831626   2.488885
    18  H    1.098706   2.174853   2.658588   4.287314   3.855759
    19  H    1.099651   2.163899   2.678762   3.909214   2.928844
    20  H    2.173521   1.093447   4.385737   2.512082   3.066365
    21  H    2.149264   1.093755   4.601224   2.364319   2.515281
    22  H    3.390117   4.700240   1.025215   6.083419   4.874317
    23  H    2.707457   4.153575   1.024446   5.962867   5.038836
    24  H    2.675787   4.153308   1.025224   5.764508   4.467702
                   11         12         13         14         15
    11  H    0.000000
    12  H    1.733665   0.000000
    13  H    2.507351   3.066576   0.000000
    14  H    2.365576   2.512021   1.734068   0.000000
    15  H    3.904786   2.916889   3.012937   2.311359   0.000000
    16  H    4.286036   3.859556   2.345851   2.629981   1.760181
    17  H    3.849894   2.528756   3.647781   3.702994   2.416370
    18  H    4.960830   4.631455   3.376361   4.577336   3.886336
    19  H    5.003819   4.322816   4.271449   5.190212   4.283580
    20  H    3.335336   3.801905   2.166322   3.734176   4.294631
    21  H    4.121483   4.250841   3.731673   5.044780   5.189888
    22  H    5.777636   4.496275   4.790991   4.660128   2.449503
    23  H    5.962732   5.062808   4.408473   4.829453   3.052606
    24  H    6.093275   4.911309   5.146967   5.482682   3.620063
                   16         17         18         19         20
    16  H    0.000000
    17  H    3.056014   0.000000
    18  H    2.803396   3.056901   0.000000
    19  H    3.886958   2.421159   1.759944   0.000000
    20  H    3.426893   3.652926   2.344165   3.009062   0.000000
    21  H    4.607244   3.687006   2.641801   2.305268   1.733818
    22  H    2.908063   2.405951   3.627207   3.612629   5.165456
    23  H    2.447116   2.950348   2.453421   3.039702   4.429882
    24  H    3.622218   2.405970   2.919365   2.439089   4.799514
                   21         22         23         24
    21  H    0.000000
    22  H    5.476814   0.000000
    23  H    4.833927   1.654822   0.000000
    24  H    4.648415   1.658291   1.654843   0.000000
 Stoichiometry    C7H16N(1+)
 Framework group  C1[X(C7H16N)]
 Deg. of freedom    66
 Full point group                 C1      NOp   1
 Largest Abelian subgroup         C1      NOp   1
 Largest concise Abelian subgroup C1      NOp   1
                         Standard orientation:                         
 ---------------------------------------------------------------------
 Center     Atomic      Atomic             Coordinates (Angstroms)
 Number     Number       Type             X           Y           Z
 ---------------------------------------------------------------------
      1          6           0       -1.766256   -0.779753   -0.551831
      2          6           0       -1.775026    0.780046   -0.540269
      3          6           0       -0.917315    1.451844    0.544007
      4          6           0        0.608279    1.309846    0.356552
      5          6           0        1.056200   -0.000564   -0.304938
      6          6           0        0.608369   -1.303699    0.370835
      7          6           0       -0.919441   -1.456481    0.538009
      8          7           0        2.587357   -0.000883   -0.356699
      9          1           0       -2.791696   -1.141026   -0.437928
     10          1           0       -1.449786   -1.152801   -1.534321
[...]
    23  H   -0.002456   0.342251  -0.000021   0.000018  -0.000018   0.000025
    24  H    0.008662   0.306669   0.000145   0.000591  -0.000008  -0.000182
              13         14         15         16         17         18
     1  C   -0.012883  -0.006471  -0.009582   0.006723   0.010614  -0.005724
     2  C   -0.053758  -0.032689   0.010633  -0.005070   0.012065   0.007342
     3  C    0.606111   0.408575   0.008604  -0.084947  -0.030674   0.018875
     4  C   -0.169552  -0.055882   0.379894   0.417950  -0.117103  -0.113722
     5  C    0.005107   0.021001  -0.025898   0.052051   0.494644   0.059739
     6  C    0.037634  -0.003822   0.020068  -0.109300  -0.116691   0.417851
     7  C   -0.038926   0.005677   0.000472   0.018617  -0.029546  -0.085668
     8  N   -0.002984  -0.004601  -0.030307   0.023598   0.031101   0.021935
     9  H    0.002356  -0.000397   0.000694   0.000133  -0.001998  -0.001360
    10  H   -0.000787  -0.002008   0.001349  -0.000232  -0.012130  -0.003592
    11  H    0.000525  -0.006943  -0.001459  -0.001370  -0.002034   0.000092
    12  H    0.004828   0.002847   0.001950  -0.003591  -0.011944  -0.000084
    13  H    0.501095  -0.003959   0.006297  -0.019991  -0.004854   0.000280
    14  H   -0.003959   0.469240  -0.001737  -0.002970   0.000081  -0.000513
    15  H    0.006297  -0.001737   0.585114  -0.063171  -0.036417  -0.003125
    16  H   -0.019991  -0.002970  -0.063171   0.565968   0.028351   0.010448
    17  H   -0.004854   0.000081  -0.036417   0.028351   0.540421   0.028276
    18  H    0.000280  -0.000513  -0.003125   0.010448   0.028276   0.563189
    19  H   -0.000053  -0.000380  -0.002868  -0.003103  -0.036061  -0.063323
    20  H   -0.006157  -0.002089   0.000151   0.000271  -0.004616  -0.019887
    21  H   -0.002150   0.000594  -0.000443  -0.000323   0.000481  -0.002387
    22  H   -0.000003   0.000626   0.005504  -0.004484  -0.014433  -0.000640
    23  H    0.000405  -0.000113   0.001929  -0.003127  -0.000333  -0.003054
    24  H   -0.000102   0.000113   0.002323  -0.000438  -0.014031  -0.004325
              19         20         21         22         23         24
     1  C    0.011699  -0.051612  -0.035046   0.001975   0.000186  -0.001244
     2  C   -0.009391  -0.013246  -0.005963  -0.001485   0.000325   0.001592
     3  C    0.000090  -0.038864   0.005756   0.008541  -0.002267  -0.000932
     4  C    0.023009   0.036362  -0.004330  -0.011922  -0.002889   0.028082
     5  C   -0.033132   0.003918   0.022521   0.007599   0.016148   0.006785
     6  C    0.382697  -0.165984  -0.060193   0.028319  -0.002798  -0.011959
     7  C    0.006898   0.603590   0.413046  -0.000969  -0.002456   0.008662
     8  N   -0.028393  -0.002695  -0.004737   0.305485   0.342251   0.306669
     9  H   -0.001341   0.000519  -0.006789  -0.000003  -0.000021   0.000145
    10  H    0.001785   0.004330   0.003125  -0.000151   0.000018   0.000591
    11  H    0.000722   0.002490  -0.000399   0.000137  -0.000018  -0.000008
    12  H    0.001151  -0.001027  -0.001978   0.000578   0.000025  -0.000182
    13  H   -0.000053  -0.006157  -0.002150  -0.000003   0.000405  -0.000102
    14  H   -0.000380  -0.002089   0.000594   0.000626  -0.000113   0.000113
    15  H   -0.002868   0.000151  -0.000443   0.005504   0.001929   0.002323
    16  H   -0.003103   0.000271  -0.000323  -0.004484  -0.003127  -0.000438
    17  H   -0.036061  -0.004616   0.000481  -0.014433  -0.000333  -0.014031
    18  H   -0.063323  -0.019887  -0.002387  -0.000640  -0.003054  -0.004325
    19  H    0.588927   0.006008  -0.002221   0.002499   0.001921   0.005609
    20  H    0.006008   0.498049  -0.003357  -0.000116   0.000374  -0.000001
    21  H   -0.002221  -0.003357   0.469813   0.000123  -0.000145   0.000696
    22  H    0.002499  -0.000116   0.000123   0.362740  -0.017879  -0.002798
    23  H    0.001921   0.000374  -0.000145  -0.017879   0.340102  -0.018004
    24  H    0.005609  -0.000001   0.000696  -0.002798  -0.018004   0.362373
 Mulliken charges:
               1
     1  C   -0.366514
     2  C   -0.379549
     3  C   -0.240652
     4  C   -0.306530
     5  C   -0.434682
     6  C   -0.306845
     7  C   -0.250408
     8  N   -0.123086
     9  H    0.199828
    10  H    0.161025
    11  H    0.197247
    12  H    0.162881
    13  H    0.151522
    14  H    0.215819
    15  H    0.150025
    16  H    0.178005
    17  H    0.286832
    18  H    0.179376
    19  H    0.147251
    20  H    0.153588
    21  H    0.214306
    22  H    0.330757
    23  H    0.349418
    24  H    0.330385
 Sum of Mulliken charges =   1.00000
 Mulliken charges with hydrogens summed into heavy atoms:
               1
     1  C   -0.005661
     2  C   -0.019421
     3  C    0.126690
     4  C    0.021501
     5  C   -0.147850
     6  C    0.019782
     7  C    0.117486
     8  N    0.887473
 Electronic spatial extent (au):  <R**2>=           1072.5259
 Charge=              1.0000 electrons
 Dipole moment (field-independent basis, Debye):
    X=              8.1368    Y=             -0.0022    Z=             -1.1080  Tot=              8.2119
 Quadrupole moment (field-independent basis, Debye-Ang):
   XX=            -19.5293   YY=            -44.9289   ZZ=            -46.7800
   XY=             -0.0037   XZ=             -4.1074   YZ=              0.0022
 Traceless Quadrupole moment (field-independent basis, Debye-Ang):
   XX=             17.5501   YY=             -7.8495   ZZ=             -9.7006
   XY=             -0.0037   XZ=             -4.1074   YZ=              0.0022
 Octapole moment (field-independent basis, Debye-Ang**2):
  XXX=             86.5726  YYY=             -0.0272  ZZZ=             -2.4191  XYY=              6.8417
  XXY=             -0.0528  XXZ=            -11.3333  XZZ=             12.4581  YZZ=              0.0439
  YYZ=             -1.6152  XYZ=             -0.0057
 Hexadecapole moment (field-independent basis, Debye-Ang**3):
 XXXX=           -481.5682 YYYY=           -443.5787 ZZZZ=           -172.9757 XXXY=              0.0435
 XXXZ=            -36.6254 YYYX=             -0.1155 YYYZ=              0.0734 ZZZX=            -10.8504
 ZZZY=             -0.1302 XXYY=           -180.9776 XXZZ=           -133.1380 YYZZ=           -106.8989
 XXYZ=              0.1670 YYXZ=            -10.4938 ZZXY=              0.0500
 N-N= 4.230627462703D+02 E-N=-1.601899185815D+03  KE= 3.293346512128D+02

 **********************************************************************

            Electrostatic Properties Using The SCF Density

 **********************************************************************

       Atomic Center    1 is at  -1.754428 -0.781717 -0.564347
       Atomic Center    2 is at  -1.765241  0.781977 -0.550740
       Atomic Center    3 is at  -0.918967  1.448674  0.546858
       Atomic Center    4 is at   0.613054  1.312578  0.372084
       Atomic Center    5 is at   1.037437 -0.000688 -0.285788
       Atomic Center    6 is at   0.613467 -1.305713  0.388766
       Atomic Center    7 is at  -0.921153 -1.454189  0.539696
       Atomic Center    8 is at   2.578809 -0.000615 -0.378027
       Atomic Center    9 is at  -2.780404 -1.140472 -0.460191
       Atomic Center   10 is at  -1.423929 -1.146917 -1.543154
       Atomic Center   11 is at  -2.793492  1.124757 -0.418290
       Atomic Center   12 is at  -1.460470  1.167507 -1.530019
       Atomic Center   13 is at  -1.207101  1.057353  1.524335
       Atomic Center   14 is at  -1.152239  2.515302  0.576565
       Atomic Center   15 is at   0.975829  2.138094 -0.252622
       Atomic Center   16 is at   1.099935  1.414923  1.349944
       Atomic Center   17 is at   0.719119 -0.007733 -1.330141
       Atomic Center   18 is at   1.086170 -1.387038  1.375391
       Atomic Center   19 is at   0.993532 -2.138354 -0.215885
       Atomic Center   20 is at  -1.227235 -1.074656  1.516266
       Atomic Center   21 is at  -1.147504 -2.522538  0.554981
       Atomic Center   22 is at   2.923333  0.826898 -0.873417
       Atomic Center   23 is at   2.993617  0.003989  0.558969
       Atomic Center   24 is at   2.924151 -0.832337 -0.865713
 -----------------------------------------------------------------

              Electrostatic Properties (Atomic Units)

 -----------------------------------------------------------------
    Center     Electric         -------- Electric Field --------
               Potential          X             Y             Z
 -----------------------------------------------------------------
    1 Atom    -14.652014     -0.000311      0.001886      0.001043
    2 Atom    -14.652186     -0.000233     -0.001891      0.000963
    3 Atom    -14.639727     -0.002749     -0.000100     -0.001481
    4 Atom    -14.609524     -0.005308      0.001587      0.001120
    5 Atom    -14.537823     -0.012987      0.000035      0.003625
    6 Atom    -14.609438     -0.005324     -0.001600      0.001106
    7 Atom    -14.639677     -0.002735      0.000105     -0.001496
    8 Atom    -18.088369     -0.010384     -0.000016      0.000418
    9 Atom     -1.011398     -0.017179     -0.006178      0.001604
   10 Atom     -1.006782      0.005093     -0.006265     -0.016060
   11 Atom     -1.011569     -0.017207      0.005902      0.002102
   12 Atom     -1.006992      0.004686      0.006572     -0.016088
   13 Atom     -0.999219     -0.005149     -0.006131      0.016481
   14 Atom     -0.997654     -0.004091      0.017816      0.000664
   15 Atom     -0.962318      0.005408      0.013753     -0.010010
   16 Atom     -0.959799      0.007601      0.001955      0.016056
   17 Atom     -0.928429     -0.005815     -0.000105     -0.018072
   18 Atom     -0.959950      0.007364     -0.001598      0.016226
   19 Atom     -0.962162      0.005682     -0.013865     -0.009668
   20 Atom     -0.999323     -0.005457      0.005933      0.016476
   21 Atom     -0.997811     -0.003995     -0.017848      0.000419
   22 Atom     -0.769598      0.007201      0.016903     -0.010239
   23 Atom     -0.770213      0.008545      0.000093      0.019155
   24 Atom     -0.769611      0.007220     -0.016991     -0.010086
 -----------------------------------------------------------------
 -----------------------------------------------------
    Center         ---- Electric Field Gradient ----
                     XX            YY            ZZ
 -----------------------------------------------------
    1 Atom     -500.201133   -500.330151   -500.266751
    2 Atom     -500.202530   -500.330792   -500.264013
    3 Atom     -500.418790   -500.172675   -500.208110
    4 Atom     -500.299375   -500.439514   -500.324636
    5 Atom     -501.343315   -500.444093   -500.445212
    6 Atom     -500.299427   -500.436841   -500.324509
    7 Atom     -500.420477   -500.172388   -500.205776
    8 Atom     -812.461352   -812.547766   -812.545026
    9 Atom       -2.096426     -1.751257     -1.702129
   10 Atom       -1.749769     -1.756417     -2.060539
   11 Atom       -2.097989     -1.747118     -1.704931
   12 Atom       -1.742298     -1.761304     -2.060436
   13 Atom       -1.744711     -1.767556     -2.067306
   14 Atom       -1.722067     -2.122087     -1.691222
   15 Atom       -1.751326     -1.944062     -1.842361
   16 Atom       -1.782373     -1.694980     -2.035549
   17 Atom       -1.764539     -1.705207     -2.109930
   18 Atom       -1.777134     -1.693619     -2.042071
   19 Atom       -1.756488     -1.948605     -1.833548
   20 Atom       -1.748504     -1.763971     -2.066978
   21 Atom       -1.721386     -2.124041     -1.691451
   22 Atom       -1.619135     -1.905551     -1.687927
   23 Atom       -1.644733     -1.563776     -1.999861
   24 Atom       -1.619467     -1.909162     -1.684226
 -----------------------------------------------------
 -----------------------------------------------------
    Center         ---- Electric Field Gradient ----
                     XY            XZ            YZ
 -----------------------------------------------------
    1 Atom        0.036987     -0.052614      0.021950
    2 Atom       -0.034404     -0.054683     -0.023798
    3 Atom        0.012606      0.012141     -0.034690
    4 Atom        0.031336      0.016547     -0.073621
    5 Atom       -0.000115      0.033934      0.000165
    6 Atom       -0.031158      0.017533      0.074696
    7 Atom       -0.015125      0.008559      0.035509
    8 Atom        0.000178     -0.007259      0.000077
    9 Atom       -0.134814      0.041199      0.017716
   10 Atom        0.047295      0.123970     -0.127628
   11 Atom        0.128762      0.052210     -0.020798
   12 Atom       -0.046345      0.114650      0.135222
   13 Atom       -0.043316      0.102019      0.148252
   14 Atom        0.089970      0.001402     -0.009885
   15 Atom       -0.103915      0.090564      0.185294
   16 Atom       -0.009498     -0.174245     -0.035356
   17 Atom       -0.000780     -0.113155     -0.002700
   18 Atom        0.005459     -0.170699      0.028138
   19 Atom        0.110039      0.091917     -0.180946
   20 Atom        0.044647      0.108484     -0.143913
   21 Atom       -0.087314      0.000027      0.004059
   22 Atom       -0.138353      0.083212      0.204693
   23 Atom       -0.000913     -0.189108     -0.002147
   24 Atom        0.139404      0.082125     -0.202584
 -----------------------------------------------------
 -----------------------------------------------------
    Center         ---- Electric Field Gradient ----
                   ----       Eigenvalues       ----
 -----------------------------------------------------
    1 Atom     -500.355769   -500.273456   -500.168811
    2 Atom     -500.356309   -500.272554   -500.168471
    3 Atom     -500.420364   -500.227845   -500.151365
    4 Atom     -500.482310   -500.292813   -500.288402
    5 Atom     -501.344595   -500.444192   -500.443832
    6 Atom     -500.481149   -500.292938   -500.286691
    7 Atom     -500.421937   -500.227109   -500.149595
    8 Atom     -812.547771   -812.545647   -812.460727
    9 Atom       -2.147333     -1.706142     -1.696338
   10 Atom       -2.150882     -1.710725     -1.705117
   11 Atom       -2.147284     -1.706356     -1.696398
   12 Atom       -2.150001     -1.709983     -1.704054
   13 Atom       -2.157964     -1.715168     -1.706441
   14 Atom       -2.141611     -1.702805     -1.690960
   15 Atom       -2.134726     -1.710000     -1.693023
   16 Atom       -2.127303     -1.700404     -1.685196
   17 Atom       -2.143718     -1.730769     -1.705189
   18 Atom       -2.127437     -1.700198     -1.685188
   19 Atom       -2.135054     -1.710450     -1.693138
   20 Atom       -2.158035     -1.715069     -1.706348
   21 Atom       -2.142194     -1.703321     -1.691363
   22 Atom       -2.084561     -1.564924     -1.563129
   23 Atom       -2.081713     -1.563766     -1.562892
   24 Atom       -2.084675     -1.564986     -1.563193
 -----------------------------------------------------
 -----------------------------------------------------
    Center         ---- Electric Field Gradient ----
                       ( tensor representation )
                   3XX-RR        3YY-RR        3ZZ-RR
 -----------------------------------------------------
    1 Atom        0.064879     -0.064139     -0.000739
    2 Atom        0.063248     -0.065014      0.001765
    3 Atom       -0.152265      0.093850      0.058415
    4 Atom        0.055133     -0.085006      0.029872
    5 Atom       -0.599108      0.300114      0.298995
    6 Atom        0.054165     -0.083249      0.029084
    7 Atom       -0.154263      0.093826      0.060438
    8 Atom        0.056696     -0.029718     -0.026978
    9 Atom       -0.246489      0.098680      0.147808
   10 Atom        0.105806      0.099158     -0.204964
   11 Atom       -0.247976      0.102895      0.145082
   12 Atom        0.112382      0.093375     -0.205757
   13 Atom        0.115147      0.092302     -0.207449
   14 Atom        0.123058     -0.276962      0.153904
   15 Atom        0.094591     -0.098146      0.003555
   16 Atom        0.055261      0.142654     -0.197915
   17 Atom        0.095353      0.154685     -0.250038
   18 Atom        0.060474      0.143989     -0.204463
   19 Atom        0.089726     -0.102392      0.012666
   20 Atom        0.111314      0.095847     -0.207161
   21 Atom        0.124240     -0.278415      0.154175
   22 Atom        0.118403     -0.168013      0.049610
   23 Atom        0.091390      0.172347     -0.263738
   24 Atom        0.118151     -0.171544      0.053393
 -----------------------------------------------------
 -----------------------------------------------------
    Center         ---- Electric Field Gradient ----
                       ( tensor representation )
                   ----       Eigenvalues       ----
 -----------------------------------------------------
    1 Atom       -0.089757     -0.007444      0.097201
    2 Atom       -0.090531     -0.006776      0.097307
    3 Atom       -0.153839      0.038680      0.115159
    4 Atom       -0.127802      0.061695      0.066107
    5 Atom       -0.600389      0.300014      0.300374
    6 Atom       -0.127556      0.060655      0.066902
    7 Atom       -0.155723      0.039105      0.116619
    8 Atom       -0.029722     -0.027599      0.057322
    9 Atom       -0.297395      0.143796      0.153599
   10 Atom       -0.295307      0.144850      0.150458
   11 Atom       -0.297271      0.143657      0.153614
   12 Atom       -0.295321      0.144696      0.150625
   13 Atom       -0.298107      0.144690      0.153416
   14 Atom       -0.296486      0.142320      0.154166
   15 Atom       -0.288810      0.135916      0.152893
   16 Atom       -0.289668      0.137230      0.152439
   17 Atom       -0.283826      0.129123      0.154703
   18 Atom       -0.289830      0.137410      0.152420
   19 Atom       -0.288840      0.135764      0.153076
   20 Atom       -0.298218      0.144748      0.153469
   21 Atom       -0.296568      0.142305      0.154264
   22 Atom       -0.347023      0.172614      0.174409
   23 Atom       -0.345589      0.172358      0.173232
   24 Atom       -0.347057      0.172632      0.174425
 -----------------------------------------------------

 Test job not archived.
 1|1|UNPC-NP-ALMACH|FOpt|RB3LYP|6-311++G(d,p)|C7H16N1(1+)|HERA|04-Aug-2
 018|0||# RB3LYP/6-311++G** Opt Test prop=EFG||C7NH16||1,1|C,1.83101829
 26,0.2673955672,0.0466240791|C,1.1782002584,0.9609250215,1.2869001135|
 C,-0.1869429758,1.6255708924,1.0419164066|C,-1.3593578749,0.6481568069
 ,0.7845015166|C,-0.9409051192,-0.6262120368,0.0507135729|C,-0.26478178
 64,-0.4748132159,-1.3122972482|C,1.0375383881,0.3629402137,-1.26742955
 79|N,-2.2064641795,-1.4883840996,-0.1476668959|H,2.8096621963,0.717387
 4679,-0.1321092692|H,2.0389722007,-0.7848987224,0.2704451793|H,1.85425
 74563,1.7371424095,1.6512846123|H,1.0923936879,0.246995539,2.113608938
 4|H,-0.1120884021,2.3270881531,0.208918613|H,-0.4491208028,2.230109864
 7,1.9130005648|H,-1.7993666963,0.3572607383,1.7463282689|H,-2.14421782
 8,1.1647419961,0.2180459647|H,-0.3153391917,-1.237477449,0.7042196415|
 H,-0.9634857431,-0.024069708,-2.0279330495|H,-0.0291505246,-1.47863944
 92,-1.6866700701|H,0.8037769259,1.4072164109,-1.4825182002|H,1.6718682
 675,0.0276866774,-2.090878762|H,-2.6758877395,-1.6733978287,0.74356719
 31|H,-2.8757173237,-1.0072596232,-0.7564911636|H,-1.9817384861,-2.3874
 416258,-0.5836174484||Version=EM64W-G09RevD.01|State=1-A|HF=-330.99171
 6|RMSD=7.920e-009|RMSF=2.669e-005|Dipole=-2.5450092,-1.9717618,-0.2707
 894|Quadrupole=5.626145,0.751188,-6.377333,9.8952408,0.6648454,1.63892
 51|PG=C01 [X(C7H16N1)]||@


0EVERYBODY IS IGNORANT, ONLY ON DIFFERENT SUBJECTS.
0          WILL ROGERS
 Job cpu time:       0 days  0 hours  4 minutes 56.0 seconds.
 File lengths (MBytes):  RWF=     39 Int=      0 D2E=      0 Chk=      7 Scr=      1
 Normal termination of Gaussian 09 at Sat Aug 04 05:48:56 2018.
