 Entering Link 1 = C:\G09W\l1.exe PID=     13320.
  
 Copyright (c) 1988,1990,1992,1993,1995,1998,2003,2009,2013,
            Gaussian, Inc.  All Rights Reserved.
  
 This is part of the Gaussian(R) 09 program.  It is based on
 the Gaussian(R) 03 system (copyright 2003, Gaussian, Inc.),
 the Gaussian(R) 98 system (copyright 1998, Gaussian, Inc.),
 the Gaussian(R) 94 system (copyright 1995, Gaussian, Inc.),
 the Gaussian 92(TM) system (copyright 1992, Gaussian, Inc.),
 the Gaussian 90(TM) system (copyright 1990, Gaussian, Inc.),
 the Gaussian 88(TM) system (copyright 1988, Gaussian, Inc.),
 the Gaussian 86(TM) system (copyright 1986, Carnegie Mellon
 University), and the Gaussian 82(TM) system (copyright 1983,
 Carnegie Mellon University). Gaussian is a federally registered
 trademark of Gaussian, Inc.
  
 This software contains proprietary and confidential information,
 including trade secrets, belonging to Gaussian, Inc.
  
 This software is provided under written license and may be
 used, copied, transmitted, or stored only in accord with that
 written license.
  
 The following legend is applicable only to US Government
 contracts under FAR:
  
                    RESTRICTED RIGHTS LEGEND
  
 Use, reproduction and disclosure by the US Government is
 subject to restrictions as set forth in subparagraphs (a)
 and (c) of the Commercial Computer Software - Restricted
 Rights clause in FAR 52.227-19.
  
 Gaussian, Inc.
 340 Quinnipiac St., Bldg. 40, Wallingford CT 06492
  
  
 ---------------------------------------------------------------
 Warning -- This program may not be used in any manner that
 competes with the business of Gaussian, Inc. or will provide
 assistance to any competitor of Gaussian, Inc.  The licensee
 of this program is prohibited from giving any competitor of
 Gaussian, Inc. access to this program.  By using this program,
 the user acknowledges that Gaussian, Inc. is engaged in the
 business of creating and licensing software in the field of
 computational chemistry and represents and warrants to the
 licensee that it is not a competitor of Gaussian, Inc. and that
 it will not use this program in any manner prohibited above.
 ---------------------------------------------------------------
  

 Cite this work as:
 Gaussian 09, Revision D.01,
 M. J. Frisch, G. W. Trucks, H. B. Schlegel, G. E. Scuseria, 
 M. A. Robb, J. R. Cheeseman, G. Scalmani, V. Barone, B. Mennucci, 
 G. A. Petersson, H. Nakatsuji, M. Caricato, X. Li, H. P. Hratchian, 
 A. F. Izmaylov, J. Bloino, G. Zheng, J. L. Sonnenberg, M. Hada, 
 M. Ehara, K. Toyota, R. Fukuda, J. Hasegawa, M. Ishida, T. Nakajima, 
 Y. Honda, O. Kitao, H. Nakai, T. Vreven, J. A. Montgomery, Jr., 
 J. E. Peralta, F. Ogliaro, M. Bearpark, J. J. Heyd, E. Brothers, 
 K. N. Kudin, V. N. Staroverov, T. Keith, R. Kobayashi, J. Normand, 
 K. Raghavachari, A. Rendell, J. C. Burant, S. S. Iyengar, J. Tomasi, 
 M. Cossi, N. Rega, J. M. Millam, M. Klene, J. E. Knox, J. B. Cross, 
 V. Bakken, C. Adamo, J. Jaramillo, R. Gomperts, R. E. Stratmann, 
 O. Yazyev, A. J. Austin, R. Cammi, C. Pomelli, J. W. Ochterski, 
 R. L. Martin, K. Morokuma, V. G. Zakrzewski, G. A. Voth, 
 P. Salvador, J. J. Dannenberg, S. Dapprich, A. D. Daniels, 
 O. Farkas, J. B. Foresman, J. V. Ortiz, J. Cioslowski, 
 and D. J. Fox, Gaussian, Inc., Wallingford CT, 2013.
 
 ******************************************
 Gaussian 09:  EM64W-G09RevD.01 13-Apr-2013
                06-Aug-2018 
 ******************************************
 %Chk=Anth_299.chk
 %Mem=64GB
 %NProcShared=20
 Will use up to   20 processors via shared memory.
 -------------------------------------
 # RB3LYP/6-311++G** Opt Test prop=EFG
 -------------------------------------
 1/14=-1,18=20,19=15,26=3,38=1/1,3;
 2/9=110,12=2,17=6,18=5,40=1/2;
 3/5=4,6=6,7=1111,11=2,16=1,25=1,30=1,71=1,74=-5,116=1/1,2,3;
 4//1;
 5/5=2,38=5/2;
 6/7=2,8=2,9=2,10=2,14=1,28=1/1,2;
 7//1,2,3,16;
 1/14=-1,18=20,19=15,26=3/3(2);
 2/9=110/2;
 99//99;
 2/9=110/2;
 3/5=4,6=6,7=1111,11=2,16=1,25=1,30=1,71=1,74=-5,116=1/1,2,3;
 4/5=5,16=3,69=1/1;
 5/5=2,38=5/2;
 7//1,2,3,16;
 1/14=-1,18=20,19=15,26=3/3(-5);
 2/9=110/2;
 6/7=2,8=2,9=2,10=2,14=1,19=2,28=1/1,2;
 99/9=1/99;
 ------
 C8NH18
 ------
 Symbolic Z-matrix:
 Charge =  1 Multiplicity = 1
 C                    -1.52663  -0.51089  -0.34274 
 C                    -0.9211   -1.92055  -0.31402 
 C                     0.60882  -2.02136  -0.21228 
 C                     1.38781  -1.06654  -1.1324 
 C                     1.96342   0.17675  -0.43243 
 C                     0.95753   1.21126   0.0979 
 C                     0.09229   0.76614   1.28668 
 C                    -1.33871   0.33408   0.9243 
 N                     1.84653   2.29234   0.65878 
 H                    -2.62806  -0.6282   -0.50389 
 H                    -1.17202   0.04816  -1.23703 
 H                    -1.38204  -2.50065   0.52154 
 H                    -1.23117  -2.43368  -1.25861 
 H                     0.94525  -1.90651   0.84143 
 H                     0.8827   -3.07478  -0.47018 
 H                     0.78232  -0.77885  -2.02098 
 H                     2.26012  -1.63116  -1.54805 
 H                     2.62806  -0.15775   0.39998 
 H                     2.62768   0.6947   -1.16859 
 H                     0.35455   1.67295  -0.71571 
 H                     0.61324  -0.03462   1.85669 
 H                    -0.00586   1.60311   2.02098 
 H                    -1.79228  -0.20052   1.79341 
 H                    -1.94184   1.2663    0.78426 
 H                     2.4762    2.65173  -0.09375 
 H                     2.42296   1.90013   1.43719 
 H                     1.25701   3.07478   1.02243 
 

 GradGradGradGradGradGradGradGradGradGradGradGradGradGradGradGradGradGrad
 Berny optimization.
 Initialization pass.
                           ----------------------------
                           !    Initial Parameters    !
                           ! (Angstroms and Degrees)  !
 --------------------------                            --------------------------
 ! Name  Definition              Value          Derivative Info.                !
 --------------------------------------------------------------------------------
 ! R1    R(1,2)                  1.5345         estimate D2E/DX2                !
 ! R2    R(1,8)                  1.5345         estimate D2E/DX2                !
 ! R3    R(1,10)                 1.1193         estimate D2E/DX2                !
 ! R4    R(1,11)                 1.1127         estimate D2E/DX2                !
 ! R5    R(2,3)                  1.5366         estimate D2E/DX2                !
 ! R6    R(2,12)                 1.1167         estimate D2E/DX2                !
 ! R7    R(2,13)                 1.1188         estimate D2E/DX2                !
 ! R8    R(3,4)                  1.5379         estimate D2E/DX2                !
 ! R9    R(3,14)                 1.1121         estimate D2E/DX2                !
 ! R10   R(3,15)                 1.1186         estimate D2E/DX2                !
 ! R11   R(4,5)                  1.5385         estimate D2E/DX2                !
 ! R12   R(4,16)                 1.1131         estimate D2E/DX2                !
 ! R13   R(4,17)                 1.1192         estimate D2E/DX2                !
 ! R14   R(5,6)                  1.5373         estimate D2E/DX2                !
 ! R15   R(5,18)                 1.1165         estimate D2E/DX2                !
 ! R16   R(5,19)                 1.1187         estimate D2E/DX2                !
 ! R17   R(6,7)                  1.5362         estimate D2E/DX2                !
 ! R18   R(6,9)                  1.5079         estimate D2E/DX2                !
 ! R19   R(6,20)                 1.113          estimate D2E/DX2                !
 ! R20   R(7,8)                  1.5381         estimate D2E/DX2                !
 ! R21   R(7,21)                 1.1124         estimate D2E/DX2                !
 ! R22   R(7,22)                 1.1177         estimate D2E/DX2                !
 ! R23   R(8,23)                 1.1166         estimate D2E/DX2                !
 ! R24   R(8,24)                 1.1191         estimate D2E/DX2                !
 ! R25   R(9,25)                 1.045          estimate D2E/DX2                !
 ! R26   R(9,26)                 1.045          estimate D2E/DX2                !
 ! R27   R(9,27)                 1.045          estimate D2E/DX2                !
 ! A1    A(2,1,8)              116.2365         estimate D2E/DX2                !
 ! A2    A(2,1,10)             107.1409         estimate D2E/DX2                !
 ! A3    A(2,1,11)             110.5386         estimate D2E/DX2                !
 ! A4    A(8,1,10)             107.2835         estimate D2E/DX2                !
 ! A5    A(8,1,11)             110.3618         estimate D2E/DX2                !
 ! A6    A(10,1,11)            104.5104         estimate D2E/DX2                !
 ! A7    A(1,2,3)              117.0265         estimate D2E/DX2                !
 ! A8    A(1,2,12)             109.1666         estimate D2E/DX2                !
 ! A9    A(1,2,13)             107.2278         estimate D2E/DX2                !
 ! A10   A(3,2,12)             109.1072         estimate D2E/DX2                !
 ! A11   A(3,2,13)             107.5629         estimate D2E/DX2                !
 ! A12   A(12,2,13)            106.205          estimate D2E/DX2                !
 ! A13   A(2,3,4)              115.0861         estimate D2E/DX2                !
 ! A14   A(2,3,14)             110.9266         estimate D2E/DX2                !
 ! A15   A(2,3,15)             106.8758         estimate D2E/DX2                !
 ! A16   A(4,3,14)             110.4599         estimate D2E/DX2                !
 ! A17   A(4,3,15)             108.8279         estimate D2E/DX2                !
 ! A18   A(14,3,15)            103.9837         estimate D2E/DX2                !
 ! A19   A(3,4,5)              114.7731         estimate D2E/DX2                !
 ! A20   A(3,4,16)             111.2573         estimate D2E/DX2                !
 ! A21   A(3,4,17)             107.6851         estimate D2E/DX2                !
 ! A22   A(5,4,16)             110.9681         estimate D2E/DX2                !
 ! A23   A(5,4,17)             106.5622         estimate D2E/DX2                !
 ! A24   A(16,4,17)            104.946          estimate D2E/DX2                !
 ! A25   A(4,5,6)              117.1266         estimate D2E/DX2                !
 ! A26   A(4,5,18)             108.6513         estimate D2E/DX2                !
 ! A27   A(4,5,19)             107.2723         estimate D2E/DX2                !
 ! A28   A(6,5,18)             109.5074         estimate D2E/DX2                !
 ! A29   A(6,5,19)             107.6967         estimate D2E/DX2                !
 ! A30   A(18,5,19)            106.0133         estimate D2E/DX2                !
 ! A31   A(5,6,7)              116.136          estimate D2E/DX2                !
 ! A32   A(5,6,9)              103.0041         estimate D2E/DX2                !
 ! A33   A(5,6,20)             112.4246         estimate D2E/DX2                !
 ! A34   A(7,6,9)              104.5938         estimate D2E/DX2                !
 ! A35   A(7,6,20)             112.3797         estimate D2E/DX2                !
 ! A36   A(9,6,20)             107.0928         estimate D2E/DX2                !
 ! A37   A(6,7,8)              115.0296         estimate D2E/DX2                !
 ! A38   A(6,7,21)             109.9579         estimate D2E/DX2                !
 ! A39   A(6,7,22)             109.9295         estimate D2E/DX2                !
 ! A40   A(8,7,21)             110.7444         estimate D2E/DX2                !
 ! A41   A(8,7,22)             106.4649         estimate D2E/DX2                !
 ! A42   A(21,7,22)            104.0933         estimate D2E/DX2                !
 ! A43   A(1,8,7)              117.5911         estimate D2E/DX2                !
 ! A44   A(1,8,23)             109.2263         estimate D2E/DX2                !
 ! A45   A(1,8,24)             106.8199         estimate D2E/DX2                !
 ! A46   A(7,8,23)             109.2096         estimate D2E/DX2                !
 ! A47   A(7,8,24)             107.2709         estimate D2E/DX2                !
 ! A48   A(23,8,24)            106.0982         estimate D2E/DX2                !
 ! A49   A(6,9,25)             109.5103         estimate D2E/DX2                !
 ! A50   A(6,9,26)             109.4636         estimate D2E/DX2                !
 ! A51   A(6,9,27)             109.4916         estimate D2E/DX2                !
 ! A52   A(25,9,26)            109.4586         estimate D2E/DX2                !
 ! A53   A(25,9,27)            109.453          estimate D2E/DX2                !
 ! A54   A(26,9,27)            109.4503         estimate D2E/DX2                !
 ! D1    D(8,1,2,3)            -64.7084         estimate D2E/DX2                !
 ! D2    D(8,1,2,12)            59.7867         estimate D2E/DX2                !
 ! D3    D(8,1,2,13)           174.439          estimate D2E/DX2                !
 ! D4    D(10,1,2,3)           175.3824         estimate D2E/DX2                !
 ! D5    D(10,1,2,12)          -60.1225         estimate D2E/DX2                !
 ! D6    D(10,1,2,13)           54.5298         estimate D2E/DX2                !
 ! D7    D(11,1,2,3)            62.0821         estimate D2E/DX2                !
 ! D8    D(11,1,2,12)         -173.4229         estimate D2E/DX2                !
 ! D9    D(11,1,2,13)          -58.7705         estimate D2E/DX2                !
 ! D10   D(2,1,8,7)             66.4019         estimate D2E/DX2                !
 ! D11   D(2,1,8,23)           -58.7277         estimate D2E/DX2                !
 ! D12   D(2,1,8,24)          -173.0717         estimate D2E/DX2                !
 ! D13   D(10,1,8,7)          -173.7659         estimate D2E/DX2                !
 ! D14   D(10,1,8,23)           61.1045         estimate D2E/DX2                !
 ! D15   D(10,1,8,24)          -53.2395         estimate D2E/DX2                !
 ! D16   D(11,1,8,7)           -60.4766         estimate D2E/DX2                !
 ! D17   D(11,1,8,23)          174.3938         estimate D2E/DX2                !
 ! D18   D(11,1,8,24)           60.0498         estimate D2E/DX2                !
 ! D19   D(1,2,3,4)            -44.6116         estimate D2E/DX2                !
 ! D20   D(1,2,3,14)            81.7037         estimate D2E/DX2                !
 ! D21   D(1,2,3,15)          -165.5683         estimate D2E/DX2                !
 ! D22   D(12,2,3,4)          -169.1367         estimate D2E/DX2                !
 ! D23   D(12,2,3,14)          -42.8214         estimate D2E/DX2                !
 ! D24   D(12,2,3,15)           69.9066         estimate D2E/DX2                !
 ! D25   D(13,2,3,4)            76.0646         estimate D2E/DX2                !
 ! D26   D(13,2,3,14)         -157.6201         estimate D2E/DX2                !
 ! D27   D(13,2,3,15)          -44.8921         estimate D2E/DX2                !
 ! D28   D(2,3,4,5)            102.07           estimate D2E/DX2                !
 ! D29   D(2,3,4,16)           -24.9737         estimate D2E/DX2                !
 ! D30   D(2,3,4,17)          -139.4619         estimate D2E/DX2                !
 ! D31   D(14,3,4,5)           -24.4841         estimate D2E/DX2                !
 ! D32   D(14,3,4,16)         -151.5277         estimate D2E/DX2                !
 ! D33   D(14,3,4,17)           93.984          estimate D2E/DX2                !
 ! D34   D(15,3,4,5)          -138.0441         estimate D2E/DX2                !
 ! D35   D(15,3,4,16)           94.9123         estimate D2E/DX2                !
 ! D36   D(15,3,4,17)          -19.576          estimate D2E/DX2                !
 ! D37   D(3,4,5,6)            -67.3585         estimate D2E/DX2                !
 ! D38   D(3,4,5,18)            57.3165         estimate D2E/DX2                !
 ! D39   D(3,4,5,19)           171.5121         estimate D2E/DX2                !
 ! D40   D(16,4,5,6)            59.8327         estimate D2E/DX2                !
 ! D41   D(16,4,5,18)         -175.4923         estimate D2E/DX2                !
 ! D42   D(16,4,5,19)          -61.2967         estimate D2E/DX2                !
 ! D43   D(17,4,5,6)           173.5436         estimate D2E/DX2                !
 ! D44   D(17,4,5,18)          -61.7814         estimate D2E/DX2                !
 ! D45   D(17,4,5,19)           52.4142         estimate D2E/DX2                !
 ! D46   D(4,5,6,7)             68.4366         estimate D2E/DX2                !
 ! D47   D(4,5,6,9)           -177.8997         estimate D2E/DX2                !
 ! D48   D(4,5,6,20)           -62.9617         estimate D2E/DX2                !
 ! D49   D(18,5,6,7)           -55.8068         estimate D2E/DX2                !
 ! D50   D(18,5,6,9)            57.8568         estimate D2E/DX2                !
 ! D51   D(18,5,6,20)          172.7948         estimate D2E/DX2                !
 ! D52   D(19,5,6,7)          -170.6563         estimate D2E/DX2                !
 ! D53   D(19,5,6,9)           -56.9926         estimate D2E/DX2                !
 ! D54   D(19,5,6,20)           57.9454         estimate D2E/DX2                !
 ! D55   D(5,6,7,8)           -100.7752         estimate D2E/DX2                !
 ! D56   D(5,6,7,21)            25.0596         estimate D2E/DX2                !
 ! D57   D(5,6,7,22)           139.0903         estimate D2E/DX2                !
 ! D58   D(9,6,7,8)            146.4717         estimate D2E/DX2                !
 ! D59   D(9,6,7,21)           -87.6935         estimate D2E/DX2                !
 ! D60   D(9,6,7,22)            26.3373         estimate D2E/DX2                !
 ! D61   D(20,6,7,8)            30.6441         estimate D2E/DX2                !
 ! D62   D(20,6,7,21)          156.4789         estimate D2E/DX2                !
 ! D63   D(20,6,7,22)          -89.4903         estimate D2E/DX2                !
 ! D64   D(5,6,9,25)            58.0189         estimate D2E/DX2                !
 ! D65   D(5,6,9,26)           -61.9849         estimate D2E/DX2                !
 ! D66   D(5,6,9,27)           178.0329         estimate D2E/DX2                !
 ! D67   D(7,6,9,25)           179.8421         estimate D2E/DX2                !
 ! D68   D(7,6,9,26)            59.8383         estimate D2E/DX2                !
 ! D69   D(7,6,9,27)           -60.1438         estimate D2E/DX2                !
 ! D70   D(20,6,9,25)          -60.7068         estimate D2E/DX2                !
 ! D71   D(20,6,9,26)          179.2895         estimate D2E/DX2                !
 ! D72   D(20,6,9,27)           59.3073         estimate D2E/DX2                !
 ! D73   D(6,7,8,1)             40.9652         estimate D2E/DX2                !
 ! D74   D(6,7,8,23)           166.103          estimate D2E/DX2                !
 ! D75   D(6,7,8,24)           -79.3256         estimate D2E/DX2                !
 ! D76   D(21,7,8,1)           -84.4625         estimate D2E/DX2                !
 ! D77   D(21,7,8,23)           40.6753         estimate D2E/DX2                !
 ! D78   D(21,7,8,24)          155.2467         estimate D2E/DX2                !
 ! D79   D(22,7,8,1)           162.9896         estimate D2E/DX2                !
 ! D80   D(22,7,8,23)          -71.8726         estimate D2E/DX2                !
 ! D81   D(22,7,8,24)           42.6988         estimate D2E/DX2                !
 --------------------------------------------------------------------------------
 Trust Radius=3.00D-01 FncErr=1.00D-07 GrdErr=1.00D-06
 Number of steps in this run=    162 maximum allowed number of steps=    162.
 GradGradGradGradGradGradGradGradGradGradGradGradGradGradGradGradGradGrad

                          Input orientation:                          
 ---------------------------------------------------------------------
 Center     Atomic      Atomic             Coordinates (Angstroms)
 Number     Number       Type             X           Y           Z
 ---------------------------------------------------------------------
      1          6           0       -1.526632   -0.510890   -0.342735
      2          6           0       -0.921099   -1.920553   -0.314021
      3          6           0        0.608821   -2.021357   -0.212281
      4          6           0        1.387806   -1.066540   -1.132401
      5          6           0        1.963415    0.176753   -0.432431
      6          6           0        0.957530    1.211259    0.097900
      7          6           0        0.092291    0.766140    1.286676
      8          6           0       -1.338707    0.334075    0.924299
      9          7           0        1.846530    2.292336    0.658777
     10          1           0       -2.628057   -0.628201   -0.503886
     11          1           0       -1.172015    0.048157   -1.237025
     12          1           0       -1.382036   -2.500645    0.521537
     13          1           0       -1.231165   -2.433678   -1.258610
     14          1           0        0.945248   -1.906514    0.841429
     15          1           0        0.882704   -3.074779   -0.470183
     16          1           0        0.782315   -0.778847   -2.020984
     17          1           0        2.260121   -1.631164   -1.548049
     18          1           0        2.628057   -0.157752    0.399982
     19          1           0        2.627676    0.694699   -1.168592
     20          1           0        0.354549    1.672953   -0.715705
     21          1           0        0.613236   -0.034620    1.856692
     22          1           0       -0.005857    1.603111    2.020984
     23          1           0       -1.792283   -0.200515    1.793408
     24          1           0       -1.941835    1.266300    0.784257
     25          1           0        2.476200    2.651725   -0.093750
     26          1           0        2.422961    1.900133    1.437186
     27          1           0        1.257006    3.074779    1.022429
 ---------------------------------------------------------------------
                    Distance matrix (angstroms):
                    1          2          3          4          5
     1  C    0.000000
     2  C    1.534485   0.000000
     3  C    2.618910   1.536609   0.000000
     4  C    3.070223   2.594249   1.537893   0.000000
     5  C    3.558276   3.568352   2.591347   1.538526   0.000000
     6  C    3.054671   3.675211   3.266132   2.624337   1.537289
     7  C    2.628060   3.287478   3.206839   3.299850   2.608412
     8  C    1.534489   2.605989   3.260788   3.691288   3.573440
     9  N    4.498814   5.133667   4.571500   3.834161   2.383294
    10  H    1.119316   2.149402   3.536000   4.088316   4.662046
    11  H    1.112673   2.188770   2.916224   2.793954   3.239572
    12  H    2.174166   1.116748   2.175251   3.530466   4.389824
    13  H    2.150172   1.118788   2.156470   2.957026   4.207406
    14  H    3.075744   2.195111   1.112060   2.190301   2.645635
    15  H    3.520606   2.147168   1.118581   2.174094   3.426634
    16  H    2.866977   2.668114   2.201213   1.113089   2.198106
    17  H    4.128837   3.424432   2.159472   1.119150   2.145041
    18  H    4.235301   4.026633   2.815174   2.170787   1.116492
    19  H    4.403835   4.490394   3.516712   2.154194   1.118679
    20  H    2.906393   3.834307   3.737113   2.957377   2.215245
    21  H    3.105374   3.259282   2.868413   3.255686   2.666036
    22  H    3.516948   4.325058   4.301403   4.360409   3.454240
    23  H    2.174859   2.856352   3.619883   4.407190   4.382004
    24  H    2.144973   3.521952   4.278741   4.494689   4.233015
    25  H    5.107523   5.700516   5.033771   4.011096   2.550125
    26  H    4.957866   5.370950   4.624925   4.058999   2.583929
    27  H    4.740183   5.611023   5.283489   4.670217   3.318763
                    6          7          8          9         10
     6  C    0.000000
     7  C    1.536215   0.000000
     8  C    2.593278   1.538100   0.000000
     9  N    1.507857   2.408503   3.748469   0.000000
    10  H    4.074579   3.542682   2.151304   5.468386   0.000000
    11  H    2.769439   2.912565   2.186517   4.212128   1.764939
    12  H    4.408091   3.664828   2.863517   5.780583   2.471863
    13  H    4.462743   4.297540   3.526629   5.956827   2.404301
    14  H    3.205229   2.840574   3.200556   4.298373   4.026471
    15  H    4.324169   4.296972   4.301108   5.568612   4.279290
    16  H    2.912197   3.715337   3.796317   4.212581   3.735628
    17  H    3.533449   4.299095   4.788134   4.520508   5.098087
    18  H    2.180850   2.840759   4.031379   2.584703   5.353974
    19  H    2.158755   3.530102   4.499160   2.549884   5.460277
    20  H    1.112969   2.213734   2.710964   2.121048   3.773078
    21  H    2.182682   1.112438   2.194396   2.893223   4.053473
    22  H    2.186302   1.117749   2.142349   2.400412   4.269620
    23  H    3.525525   2.177801   1.116632   4.554410   2.481732
    24  H    2.980006   2.154125   1.119115   3.926857   2.391516
    25  H    2.101911   3.338267   4.578367   1.044960   6.081083
    26  H    2.101362   2.596270   4.106792   1.044996   5.972689
    27  H    2.101701   2.599269   3.776084   1.044987   5.579912
                   11         12         13         14         15
    11  H    0.000000
    12  H    3.103714   0.000000
    13  H    2.482634   1.787784   0.000000
    14  H    3.552958   2.423133   3.069990   0.000000
    15  H    3.816104   2.538146   2.345436   1.757578   0.000000
    16  H    2.262285   3.756783   2.715471   3.080842   2.772430
    17  H    3.833590   4.278375   3.594006   2.741225   2.267840
    18  H    4.142793   4.645941   4.777485   2.466757   3.508916
    19  H    3.854913   5.398569   4.968450   3.692839   4.212086
    20  H    2.289571   4.686728   4.435499   3.947933   4.783324
    21  H    3.572822   3.441661   4.343087   2.155221   3.837907
    22  H    3.793736   4.580723   5.343480   3.822750   5.373836
    23  H    3.103239   2.660180   3.823177   3.363149   4.532195
    24  H    2.482353   3.817364   4.285813   4.290136   5.328847
    25  H    4.625486   6.466180   6.400217   4.898563   5.955987
    26  H    4.848203   5.889250   6.277091   4.126636   5.546188
    27  H    4.490625   6.188763   6.460436   4.994320   6.339168
                   16         17         18         19         20
    16  H    0.000000
    17  H    1.770317   0.000000
    18  H    3.107024   2.470050   0.000000
    19  H    2.510631   2.385104   1.785244   0.000000
    20  H    2.810349   3.903997   3.124912   2.515789   0.000000
    21  H    3.952067   4.105295   2.489311   3.707050   3.098379
    22  H    4.757357   5.322893   3.558903   4.234868   2.761202
    23  H    4.638169   5.443718   4.634962   5.395451   3.796632
    24  H    4.412822   5.611718   4.802031   5.002077   2.772838
    25  H    4.283959   4.528224   2.856570   2.237897   2.417897
    26  H    4.672001   4.626900   2.313600   2.878378   2.994141
    27  H    4.933369   5.455227   3.566017   3.513416   2.408455
                   21         22         23         24         25
    21  H    0.000000
    22  H    1.758531   0.000000
    23  H    2.412063   2.548760   0.000000
    24  H    3.061192   2.321841   1.786700   0.000000
    25  H    3.806745   3.425244   5.469606   4.712678   0.000000
    26  H    2.682230   2.515591   4.723124   4.458644   1.706309
    27  H    3.283108   2.181225   4.540939   3.682378   1.706243
                   26         27
    26  H    0.000000
    27  H    1.706244   0.000000
 Stoichiometry    C8H18N(1+)
 Framework group  C1[X(C8H18N)]
 Deg. of freedom    75
 Full point group                 C1      NOp   1
 Largest Abelian subgroup         C1      NOp   1
 Largest concise Abelian subgroup C1      NOp   1
                         Standard orientation:                         
 ---------------------------------------------------------------------
 Center     Atomic      Atomic             Coordinates (Angstroms)
 Number     Number       Type             X           Y           Z
 ---------------------------------------------------------------------
      1          6           0        1.529319   -1.083136   -0.710521
      2          6           0        2.319430   -0.025598    0.071773
      3          6           0        1.524942    1.160258    0.640721
      4          6           0        0.504994    1.785474   -0.325677
      5          6           0       -0.957152    1.380426   -0.070483
      6          6           0       -1.333282   -0.087457   -0.329526
      7          6           0       -0.728959   -1.120901    0.633150
      8          6           0        0.491115   -1.882526    0.088081
      9          7           0       -2.812292   -0.115383   -0.037328
     10          1           0        2.271655   -1.815407   -1.117441
     11          1           0        1.059922   -0.631552   -1.612619
     12          1           0        2.876935   -0.523762    0.901320
     13          1           0        3.094445    0.388450   -0.620760
     14          1           0        1.033883    0.885713    1.599972
     15          1           0        2.271064    1.940811    0.932716
     16          1           0        0.789548    1.603078   -1.386208
     17          1           0        0.554760    2.896483   -0.200460
     18          1           0       -1.225878    1.654731    0.977896
     19          1           0       -1.598176    2.017212   -0.730056
     20          1           0       -1.205135   -0.376618   -1.396609
     21          1           0       -0.489720   -0.638612    1.606638
     22          1           0       -1.494348   -1.893010    0.892747
     23          1           0        1.001184   -2.409843    0.929885
     24          1           0        0.106103   -2.683550   -0.592026
     25          1           0       -3.303116    0.569533   -0.655328
     26          1           0       -2.974484    0.139837    0.962958
     27          1           0       -3.185036   -1.075061   -0.216430
 ---------------------------------------------------------------------
 Rotational constants (GHZ):      2.1661236      1.3116149      0.9335478
 Standard basis: 6-311++G(d,p) (5D, 7F)
 There are   333 symmetry adapted cartesian basis functions of A   symmetry.
 There are   324 symmetry adapted basis functions of A   symmetry.
   324 basis functions,   486 primitive gaussians,   333 cartesian basis functions
    36 alpha electrons       36 beta electrons
       nuclear repulsion energy       510.4716810739 Hartrees.
 NAtoms=   27 NActive=   27 NUniq=   27 SFac= 1.00D+00 NAtFMM=   60 NAOKFM=F Big=F
 Integral buffers will be    131072 words long.
 Raffenetti 2 integral format.
 Two-electron integral symmetry is turned on.
 One-electron integrals computed using PRISM.
 NBasis=   324 RedAO= T EigKep=  4.18D-06  NBF=   324
 NBsUse=   324 1.00D-06 EigRej= -1.00D+00 NBFU=   324
 ExpMin= 3.60D-02 ExpMax= 6.29D+03 ExpMxC= 9.49D+02 IAcc=3 IRadAn=         5 AccDes= 0.00D+00
 Harris functional with IExCor=  402 and IRadAn=       5 diagonalized for initial guess.
 HarFok:  IExCor=  402 AccDes= 0.00D+00 IRadAn=         5 IDoV= 1 UseB2=F ITyADJ=14
 ICtDFT=  3500011 ScaDFX=  1.000000  1.000000  1.000000  1.000000
 FoFCou: FMM=F IPFlag=           0 FMFlag=      100000 FMFlg1=           0
         NFxFlg=           0 DoJE=T BraDBF=F KetDBF=T FulRan=T
         wScrn=  0.000000 ICntrl=     500 IOpCl=  0 I1Cent=   200000004 NGrid=           0
         NMat0=    1 NMatS0=      1 NMatT0=    0 NMatD0=    1 NMtDS0=    0 NMtDT0=    0
 Petite list used in FoFCou.
 Keep R1 ints in memory in canonical form, NReq=1405027657.
 Requested convergence on RMS density matrix=1.00D-08 within 128 cycles.
 Requested convergence on MAX density matrix=1.00D-06.
 Requested convergence on             energy=1.00D-06.
 No special actions if energy rises.
 SCF Done:  E(RB3LYP) =  -370.306763539     A.U. after   13 cycles
            NFock= 13  Conv=0.29D-08     -V/T= 2.0061

 **********************************************************************

            Population analysis using the SCF density.

 **********************************************************************

 Orbital symmetries:
       Occupied  (A) (A) (A) (A) (A) (A) (A) (A) (A) (A) (A) (A)
                 (A) (A) (A) (A) (A) (A) (A) (A) (A) (A) (A) (A)
                 (A) (A) (A) (A) (A) (A) (A) (A) (A) (A) (A) (A)
       Virtual   (A) (A) (A) (A) (A) (A) (A) (A) (A) (A) (A) (A)
                 (A) (A) (A) (A) (A) (A) (A) (A) (A) (A) (A) (A)
                 (A) (A) (A) (A) (A) (A) (A) (A) (A) (A) (A) (A)
                 (A) (A) (A) (A) (A) (A) (A) (A) (A) (A) (A) (A)
                 (A) (A) (A) (A) (A) (A) (A) (A) (A) (A) (A) (A)
                 (A) (A) (A) (A) (A) (A) (A) (A) (A) (A) (A) (A)
                 (A) (A) (A) (A) (A) (A) (A) (A) (A) (A) (A) (A)
                 (A) (A) (A) (A) (A) (A) (A) (A) (A) (A) (A) (A)
                 (A) (A) (A) (A) (A) (A) (A) (A) (A) (A) (A) (A)
                 (A) (A) (A) (A) (A) (A) (A) (A) (A) (A) (A) (A)
                 (A) (A) (A) (A) (A) (A) (A) (A) (A) (A) (A) (A)
                 (A) (A) (A) (A) (A) (A) (A) (A) (A) (A) (A) (A)
                 (A) (A) (A) (A) (A) (A) (A) (A) (A) (A) (A) (A)
                 (A) (A) (A) (A) (A) (A) (A) (A) (A) (A) (A) (A)
                 (A) (A) (A) (A) (A) (A) (A) (A) (A) (A) (A) (A)
                 (A) (A) (A) (A) (A) (A) (A) (A) (A) (A) (A) (A)
                 (A) (A) (A) (A) (A) (A) (A) (A) (A) (A) (A) (A)
                 (A) (A) (A) (A) (A) (A) (A) (A) (A) (A) (A) (A)
                 (A) (A) (A) (A) (A) (A) (A) (A) (A) (A) (A) (A)
                 (A) (A) (A) (A) (A) (A) (A) (A) (A) (A) (A) (A)
                 (A) (A) (A) (A) (A) (A) (A) (A) (A) (A) (A) (A)
                 (A) (A) (A) (A) (A) (A) (A) (A) (A) (A) (A) (A)
                 (A) (A) (A) (A) (A) (A) (A) (A) (A) (A) (A) (A)
                 (A) (A) (A) (A) (A) (A) (A) (A) (A) (A) (A) (A)
 The electronic state is 1-A.
 Alpha  occ. eigenvalues --  -14.62591 -10.41088 -10.34311 -10.33901 -10.30822
 Alpha  occ. eigenvalues --  -10.30800 -10.29171 -10.28939 -10.28261  -1.19027
 Alpha  occ. eigenvalues --   -0.97918  -0.92210  -0.91423  -0.83500  -0.82811
 Alpha  occ. eigenvalues --   -0.78543  -0.76653  -0.73457  -0.71217  -0.67868
 Alpha  occ. eigenvalues --   -0.67118  -0.61825  -0.59594  -0.58521  -0.57243
 Alpha  occ. eigenvalues --   -0.56348  -0.55121  -0.52176  -0.51121  -0.50244
 Alpha  occ. eigenvalues --   -0.48433  -0.48224  -0.47511  -0.44091  -0.43924
 Alpha  occ. eigenvalues --   -0.42659
 Alpha virt. eigenvalues --   -0.18977  -0.14458  -0.14201  -0.12391  -0.10869
 Alpha virt. eigenvalues --   -0.09742  -0.09215  -0.09155  -0.08454  -0.07411
 Alpha virt. eigenvalues --   -0.06521  -0.06322  -0.06108  -0.04954  -0.04720
 Alpha virt. eigenvalues --   -0.04290  -0.04030  -0.03600  -0.02527  -0.02181
 Alpha virt. eigenvalues --   -0.01403  -0.01036  -0.00643  -0.00432  -0.00348
 Alpha virt. eigenvalues --    0.00314   0.01117   0.01300   0.01525   0.01727
 Alpha virt. eigenvalues --    0.01928   0.02468   0.02917   0.03013   0.03311
 Alpha virt. eigenvalues --    0.03924   0.04190   0.04449   0.04708   0.04920
 Alpha virt. eigenvalues --    0.05627   0.05844   0.06036   0.06503   0.06804
 Alpha virt. eigenvalues --    0.07076   0.07262   0.07607   0.08410   0.08908
 Alpha virt. eigenvalues --    0.09348   0.09556   0.10255   0.10499   0.10581
 Alpha virt. eigenvalues --    0.10855   0.11239   0.12240   0.12652   0.13519
 Alpha virt. eigenvalues --    0.13840   0.13888   0.14254   0.14508   0.15888
 Alpha virt. eigenvalues --    0.16817   0.18273   0.18307   0.18410   0.19916
 Alpha virt. eigenvalues --    0.20592   0.21343   0.22189   0.23142   0.23509
 Alpha virt. eigenvalues --    0.23713   0.24251   0.25271   0.26023   0.27812
 Alpha virt. eigenvalues --    0.28444   0.32072   0.32330   0.33676   0.35572
 Alpha virt. eigenvalues --    0.36749   0.36849   0.37990   0.38906   0.39535
 Alpha virt. eigenvalues --    0.40619   0.41846   0.45132   0.45534   0.46471
 Alpha virt. eigenvalues --    0.47145   0.48023   0.48988   0.49866   0.50280
 Alpha virt. eigenvalues --    0.51619   0.52222   0.52851   0.54464   0.54816
 Alpha virt. eigenvalues --    0.55622   0.56327   0.57075   0.57912   0.58457
 Alpha virt. eigenvalues --    0.59507   0.59980   0.60880   0.61353   0.61675
 Alpha virt. eigenvalues --    0.62262   0.62593   0.63929   0.64970   0.65349
 Alpha virt. eigenvalues --    0.65672   0.66022   0.66953   0.69046   0.71220
 Alpha virt. eigenvalues --    0.73208   0.75457   0.80564   0.84458   0.87161
 Alpha virt. eigenvalues --    0.88044   0.90443   0.92687   0.94588   0.98926
 Alpha virt. eigenvalues --    1.00775   1.02913   1.03926   1.05839   1.07826
 Alpha virt. eigenvalues --    1.09018   1.09656   1.13868   1.16277   1.19419
 Alpha virt. eigenvalues --    1.22427   1.23637   1.26893   1.28705   1.33180
 Alpha virt. eigenvalues --    1.34503   1.37520   1.39479   1.40698   1.41805
 Alpha virt. eigenvalues --    1.43156   1.45480   1.45780   1.46486   1.48055
 Alpha virt. eigenvalues --    1.48246   1.48621   1.49527   1.50690   1.51709
 Alpha virt. eigenvalues --    1.52281   1.52914   1.54099   1.54935   1.56240
 Alpha virt. eigenvalues --    1.56553   1.58294   1.58549   1.59985   1.61409
 Alpha virt. eigenvalues --    1.62245   1.64361   1.64748   1.65132   1.66038
 Alpha virt. eigenvalues --    1.68059   1.69338   1.71120   1.73458   1.74230
 Alpha virt. eigenvalues --    1.75746   1.77327   1.78923   1.80725   1.84305
 Alpha virt. eigenvalues --    1.88240   1.90184   1.93777   1.94175   1.97353
 Alpha virt. eigenvalues --    1.98485   1.99816   2.01233   2.01926   2.05706
 Alpha virt. eigenvalues --    2.06615   2.08280   2.09363   2.10794   2.12998
 Alpha virt. eigenvalues --    2.13605   2.15401   2.17601   2.20181   2.20753
 Alpha virt. eigenvalues --    2.23147   2.24573   2.26376   2.26923   2.33069
 Alpha virt. eigenvalues --    2.35894   2.36152   2.37343   2.40260   2.40524
 Alpha virt. eigenvalues --    2.42850   2.43567   2.45110   2.47312   2.49315
 Alpha virt. eigenvalues --    2.50200   2.51736   2.52740   2.54835   2.56415
 Alpha virt. eigenvalues --    2.57440   2.57910   2.59471   2.61841   2.63170
 Alpha virt. eigenvalues --    2.64637   2.66181   2.68984   2.69323   2.70613
 Alpha virt. eigenvalues --    2.71562   2.72855   2.75197   2.77730   2.78921
 Alpha virt. eigenvalues --    2.80016   2.81516   2.82724   2.85013   2.87604
 Alpha virt. eigenvalues --    2.88823   2.90638   2.93058   2.96446   3.00996
 Alpha virt. eigenvalues --    3.10359   3.15729   3.25425   3.29169   3.31142
 Alpha virt. eigenvalues --    3.39067   3.51693   3.55094   3.62870   3.66034
 Alpha virt. eigenvalues --    3.70025   3.73573   3.75349   3.81080   3.90319
 Alpha virt. eigenvalues --    3.92099   4.00964   4.04143   4.18074   4.20088
 Alpha virt. eigenvalues --    4.27317   4.41048   4.42472   4.52704  23.60905
 Alpha virt. eigenvalues --   23.67876  23.71035  23.74342  23.76745  23.78645
 Alpha virt. eigenvalues --   23.79970  23.82894  35.30383
          Condensed to atoms (all electrons):
               1          2          3          4          5          6
     1  C    5.383745   0.088956  -0.122699  -0.085405   0.031659  -0.041435
     2  C    0.088956   5.946352  -0.036322  -0.072224   0.194930  -0.089664
     3  C   -0.122699  -0.036322   5.557972   0.143017  -0.178051   0.019901
     4  C   -0.085405  -0.072224   0.143017   5.888702  -0.243682  -0.265830
     5  C    0.031659   0.194930  -0.178051  -0.243682   6.692466  -0.752217
     6  C   -0.041435  -0.089664   0.019901  -0.265830  -0.752217   8.352823
     7  C    0.008426   0.213376  -0.141829   0.233034   0.017301  -1.314448
     8  C    0.019664  -0.135009   0.162992   0.015846   0.099631  -0.169673
     9  N    0.006601   0.011534  -0.007513  -0.016266  -0.045087   0.018541
    10  H    0.399030  -0.034734   0.010719   0.004674  -0.001213   0.007895
    11  H    0.470481  -0.100022  -0.018336  -0.008537   0.034934   0.020332
    12  H   -0.026276   0.437131  -0.067687  -0.000103   0.004493  -0.015905
    13  H   -0.076989   0.457826  -0.032114   0.001938  -0.009055  -0.003701
    14  H   -0.030938  -0.123294   0.507915   0.019976  -0.096938   0.038066
    15  H    0.017829  -0.062362   0.415936  -0.063559   0.007907   0.013375
    16  H   -0.013853  -0.038028  -0.066514   0.514438  -0.084633   0.035564
    17  H    0.006315   0.009019  -0.046161   0.422059  -0.044840   0.012153
    18  H   -0.002540   0.007912  -0.038414  -0.129811   0.485862   0.182293
    19  H   -0.010554  -0.007574   0.037887   0.047896   0.293674  -0.052410
    20  H    0.011102   0.015845  -0.043068  -0.062439  -0.062025   0.644450
    21  H   -0.007903   0.028339  -0.020795  -0.012743  -0.097854   0.193341
    22  H    0.029961  -0.002050   0.007673   0.011493   0.044261  -0.285395
    23  H   -0.034355  -0.037556   0.004619  -0.000669  -0.001050   0.001969
    24  H   -0.060783  -0.008856   0.003303  -0.001385  -0.027192   0.051411
    25  H    0.001934  -0.000196   0.000613   0.011778   0.032043  -0.093285
    26  H   -0.000553   0.000872  -0.000757  -0.000535  -0.019702   0.038760
    27  H   -0.000336  -0.000344   0.002116   0.001692   0.037690  -0.042594
               7          8          9         10         11         12
     1  C    0.008426   0.019664   0.006601   0.399030   0.470481  -0.026276
     2  C    0.213376  -0.135009   0.011534  -0.034734  -0.100022   0.437131
     3  C   -0.141829   0.162992  -0.007513   0.010719  -0.018336  -0.067687
     4  C    0.233034   0.015846  -0.016266   0.004674  -0.008537  -0.000103
     5  C    0.017301   0.099631  -0.045087  -0.001213   0.034934   0.004493
     6  C   -1.314448  -0.169673   0.018541   0.007895   0.020332  -0.015905
     7  C    7.008990  -0.131483  -0.021464  -0.001427  -0.063614   0.003819
     8  C   -0.131483   6.009009   0.002012  -0.045363  -0.017314  -0.016315
     9  N   -0.021464   0.002012   6.262831   0.000106  -0.003504  -0.000143
    10  H   -0.001427  -0.045363   0.000106   0.479306  -0.019325  -0.006688
    11  H   -0.063614  -0.017314  -0.003504  -0.019325   0.633206   0.013390
    12  H    0.003819  -0.016315  -0.000143  -0.006688   0.013390   0.526240
    13  H    0.005796  -0.002305   0.000529  -0.005676  -0.002017  -0.006158
    14  H   -0.027467   0.030115  -0.006720  -0.002110  -0.000503  -0.005152
    15  H   -0.004947   0.004891  -0.000343   0.000420  -0.003605  -0.005719
    16  H   -0.039029   0.003552  -0.005368  -0.001163  -0.013371  -0.001873
    17  H    0.002983  -0.002872  -0.001151   0.000328  -0.001658  -0.000931
    18  H   -0.189751  -0.014233   0.006512   0.000190  -0.002917  -0.000865
    19  H    0.032070   0.025394  -0.049512  -0.000235   0.009714   0.001276
    20  H   -0.174007  -0.088501  -0.013973  -0.000586  -0.009774  -0.002570
    21  H    0.397126  -0.127389  -0.003667  -0.000574  -0.003957  -0.004371
    22  H    0.512336  -0.054797   0.029080  -0.000208  -0.003814   0.001044
    23  H   -0.081649   0.477932  -0.003382  -0.004040   0.011305   0.009725
    24  H   -0.021910   0.407047  -0.005041  -0.005735  -0.013282  -0.004514
    25  H    0.046362   0.004939   0.321471   0.000023   0.000764   0.000116
    26  H   -0.016290   0.000559   0.339170  -0.000075  -0.000216  -0.000043
    27  H    0.005888   0.006996   0.325458   0.000130   0.001561   0.000201
              13         14         15         16         17         18
     1  C   -0.076989  -0.030938   0.017829  -0.013853   0.006315  -0.002540
     2  C    0.457826  -0.123294  -0.062362  -0.038028   0.009019   0.007912
     3  C   -0.032114   0.507915   0.415936  -0.066514  -0.046161  -0.038414
     4  C    0.001938   0.019976  -0.063559   0.514438   0.422059  -0.129811
     5  C   -0.009055  -0.096938   0.007907  -0.084633  -0.044840   0.485862
     6  C   -0.003701   0.038066   0.013375   0.035564   0.012153   0.182293
     7  C    0.005796  -0.027467  -0.004947  -0.039029   0.002983  -0.189751
     8  C   -0.002305   0.030115   0.004891   0.003552  -0.002872  -0.014233
     9  N    0.000529  -0.006720  -0.000343  -0.005368  -0.001151   0.006512
    10  H   -0.005676  -0.002110   0.000420  -0.001163   0.000328   0.000190
    11  H   -0.002017  -0.000503  -0.003605  -0.013371  -0.001658  -0.002917
    12  H   -0.006158  -0.005152  -0.005719  -0.001873  -0.000931  -0.000865
    13  H    0.501916   0.008789  -0.007229   0.003155  -0.001925   0.000198
    14  H    0.008789   0.608372  -0.017813   0.008962   0.003415  -0.007101
    15  H   -0.007229  -0.017813   0.479832   0.004244  -0.008031   0.000169
    16  H    0.003155   0.008962   0.004244   0.509990  -0.010428   0.006811
    17  H   -0.001925   0.003415  -0.008031  -0.010428   0.482301  -0.002554
    18  H    0.000198  -0.007101   0.000169   0.006811  -0.002554   0.551707
    19  H   -0.000430   0.002333   0.000725  -0.007192  -0.018324  -0.070855
    20  H    0.000017  -0.002064   0.000400   0.011311   0.002179   0.027244
    21  H   -0.000855  -0.010913   0.001787   0.001491  -0.001098   0.011782
    22  H    0.000437   0.003506  -0.000332   0.000575   0.000474  -0.000958
    23  H   -0.002861  -0.000773  -0.000305  -0.000796  -0.000026  -0.001710
    24  H   -0.001706  -0.001327   0.000658   0.001303   0.000142   0.000635
    25  H   -0.000007  -0.000033  -0.000137   0.000167   0.000517  -0.003629
    26  H    0.000053   0.001250  -0.000075  -0.000302   0.000167  -0.003033
    27  H   -0.000074  -0.000166   0.000150  -0.000448  -0.000256  -0.001981
              19         20         21         22         23         24
     1  C   -0.010554   0.011102  -0.007903   0.029961  -0.034355  -0.060783
     2  C   -0.007574   0.015845   0.028339  -0.002050  -0.037556  -0.008856
     3  C    0.037887  -0.043068  -0.020795   0.007673   0.004619   0.003303
     4  C    0.047896  -0.062439  -0.012743   0.011493  -0.000669  -0.001385
     5  C    0.293674  -0.062025  -0.097854   0.044261  -0.001050  -0.027192
     6  C   -0.052410   0.644450   0.193341  -0.285395   0.001969   0.051411
     7  C    0.032070  -0.174007   0.397126   0.512336  -0.081649  -0.021910
     8  C    0.025394  -0.088501  -0.127389  -0.054797   0.477932   0.407047
     9  N   -0.049512  -0.013973  -0.003667   0.029080  -0.003382  -0.005041
    10  H   -0.000235  -0.000586  -0.000574  -0.000208  -0.004040  -0.005735
    11  H    0.009714  -0.009774  -0.003957  -0.003814   0.011305  -0.013282
    12  H    0.001276  -0.002570  -0.004371   0.001044   0.009725  -0.004514
    13  H   -0.000430   0.000017  -0.000855   0.000437  -0.002861  -0.001706
    14  H    0.002333  -0.002064  -0.010913   0.003506  -0.000773  -0.001327
    15  H    0.000725   0.000400   0.001787  -0.000332  -0.000305   0.000658
    16  H   -0.007192   0.011311   0.001491   0.000575  -0.000796   0.001303
    17  H   -0.018324   0.002179  -0.001098   0.000474  -0.000026   0.000142
    18  H   -0.070855   0.027244   0.011782  -0.000958  -0.001710   0.000635
    19  H    0.681637  -0.051050  -0.004379  -0.005265   0.000937  -0.000557
    20  H   -0.051050   0.498371   0.020400  -0.007875  -0.001575   0.013989
    21  H   -0.004379   0.020400   0.483428  -0.038704  -0.009423   0.010072
    22  H   -0.005265  -0.007875  -0.038704   0.614335  -0.004454  -0.020168
    23  H    0.000937  -0.001575  -0.009423  -0.004454   0.488612  -0.009936
    24  H   -0.000557   0.013989   0.010072  -0.020168  -0.009936   0.526168
    25  H    0.010062  -0.017352  -0.003652   0.009320   0.000032  -0.000668
    26  H    0.002796   0.002037  -0.002062  -0.001105   0.000223  -0.000233
    27  H    0.008120  -0.015592  -0.002411   0.001737   0.000204  -0.001367
              25         26         27
     1  C    0.001934  -0.000553  -0.000336
     2  C   -0.000196   0.000872  -0.000344
     3  C    0.000613  -0.000757   0.002116
     4  C    0.011778  -0.000535   0.001692
     5  C    0.032043  -0.019702   0.037690
     6  C   -0.093285   0.038760  -0.042594
     7  C    0.046362  -0.016290   0.005888
     8  C    0.004939   0.000559   0.006996
     9  N    0.321471   0.339170   0.325458
    10  H    0.000023  -0.000075   0.000130
    11  H    0.000764  -0.000216   0.001561
    12  H    0.000116  -0.000043   0.000201
    13  H   -0.000007   0.000053  -0.000074
    14  H   -0.000033   0.001250  -0.000166
    15  H   -0.000137  -0.000075   0.000150
    16  H    0.000167  -0.000302  -0.000448
    17  H    0.000517   0.000167  -0.000256
    18  H   -0.003629  -0.003033  -0.001981
    19  H    0.010062   0.002796   0.008120
    20  H   -0.017352   0.002037  -0.015592
    21  H   -0.003652  -0.002062  -0.002411
    22  H    0.009320  -0.001105   0.001737
    23  H    0.000032   0.000223   0.000204
    24  H   -0.000668  -0.000233  -0.001367
    25  H    0.383289  -0.018742  -0.001258
    26  H   -0.018742   0.339930  -0.016910
    27  H   -0.001258  -0.016910   0.361473
 Mulliken charges:
               1
     1  C    0.038915
     2  C   -0.663860
     3  C   -0.054405
     4  C   -0.353353
     5  C   -0.313311
     6  C   -0.504317
     7  C   -0.258193
     8  C   -0.465326
     9  N   -0.140711
    10  H    0.226334
    11  H    0.090081
    12  H    0.167878
    13  H    0.172451
    14  H    0.100614
    15  H    0.226133
    16  H    0.181435
    17  H    0.198202
    18  H    0.189037
    19  H    0.123816
    20  H    0.305105
    21  H    0.204985
    22  H    0.158892
    23  H    0.199003
    24  H    0.169933
    25  H    0.315528
    26  H    0.354818
    27  H    0.330319
 Sum of Mulliken charges =   1.00000
 Mulliken charges with hydrogens summed into heavy atoms:
               1
     1  C    0.355330
     2  C   -0.323532
     3  C    0.272342
     4  C    0.026284
     5  C   -0.000459
     6  C   -0.199213
     7  C    0.105683
     8  C   -0.096390
     9  N    0.859954
 Electronic spatial extent (au):  <R**2>=           1369.6349
 Charge=              1.0000 electrons
 Dipole moment (field-independent basis, Debye):
    X=             -9.0632    Y=             -0.3240    Z=             -0.2029  Tot=              9.0713
 Quadrupole moment (field-independent basis, Debye-Ang):
   XX=            -22.2689   YY=            -50.9750   ZZ=            -54.0880
   XY=              1.2546   XZ=              0.6810   YZ=             -0.2105
 Traceless Quadrupole moment (field-independent basis, Debye-Ang):
   XX=             20.1751   YY=             -8.5310   ZZ=            -11.6440
   XY=              1.2546   XZ=              0.6810   YZ=             -0.2105
 Octapole moment (field-independent basis, Debye-Ang**2):
  XXX=           -108.4371  YYY=              0.2500  ZZZ=              0.3716  XYY=             -7.7275
  XXY=             -4.4923  XXZ=             -3.0451  XZZ=            -11.2462  YZZ=             -0.3427
  YYZ=             -0.4998  XYZ=              0.1476
 Hexadecapole moment (field-independent basis, Debye-Ang**3):
 XXXX=           -646.3182 YYYY=           -607.4537 ZZZZ=           -191.4663 XXXY=             14.7148
 XXXZ=             10.6300 YYYX=              9.4305 YYYZ=              0.2324 ZZZX=             -0.6425
 ZZZY=             -1.5686 XXYY=           -236.8143 XXZZ=           -173.1541 YYZZ=           -136.6874
 XXYZ=             -0.2016 YYXZ=              4.3616 ZZXY=             -3.4108
 N-N= 5.104716810739D+02 E-N=-1.866586612005D+03  KE= 3.680722377373D+02

 **********************************************************************

            Electrostatic Properties Using The SCF Density

 **********************************************************************

       Atomic Center    1 is at   1.529319 -1.083136 -0.710521
       Atomic Center    2 is at   2.319430 -0.025598  0.071773
       Atomic Center    3 is at   1.524942  1.160258  0.640721
       Atomic Center    4 is at   0.504994  1.785474 -0.325677
       Atomic Center    5 is at  -0.957152  1.380426 -0.070483
       Atomic Center    6 is at  -1.333282 -0.087457 -0.329526
       Atomic Center    7 is at  -0.728959 -1.120901  0.633150
       Atomic Center    8 is at   0.491115 -1.882526  0.088081
       Atomic Center    9 is at  -2.812292 -0.115383 -0.037328
       Atomic Center   10 is at   2.271655 -1.815407 -1.117441
       Atomic Center   11 is at   1.059922 -0.631552 -1.612619
       Atomic Center   12 is at   2.876935 -0.523762  0.901320
       Atomic Center   13 is at   3.094445  0.388450 -0.620760
       Atomic Center   14 is at   1.033883  0.885713  1.599972
       Atomic Center   15 is at   2.271064  1.940811  0.932716
       Atomic Center   16 is at   0.789548  1.603078 -1.386208
       Atomic Center   17 is at   0.554760  2.896483 -0.200460
       Atomic Center   18 is at  -1.225878  1.654731  0.977896
       Atomic Center   19 is at  -1.598176  2.017212 -0.730056
       Atomic Center   20 is at  -1.205135 -0.376618 -1.396609
       Atomic Center   21 is at  -0.489720 -0.638612  1.606638
       Atomic Center   22 is at  -1.494348 -1.893010  0.892747
       Atomic Center   23 is at   1.001184 -2.409843  0.929885
       Atomic Center   24 is at   0.106103 -2.683550 -0.592026
       Atomic Center   25 is at  -3.303116  0.569533 -0.655328
       Atomic Center   26 is at  -2.974484  0.139837  0.962958
       Atomic Center   27 is at  -3.185036 -1.075061 -0.216430
 -----------------------------------------------------------------

              Electrostatic Properties (Atomic Units)

 -----------------------------------------------------------------
    Center     Electric         -------- Electric Field --------
               Potential          X             Y             Z
 -----------------------------------------------------------------
    1 Atom    -14.653084      0.003310     -0.000373      0.000717
    2 Atom    -14.662198      0.001572      0.000102     -0.000375
    3 Atom    -14.655331      0.003431      0.000226      0.000584
    4 Atom    -14.636271      0.003684      0.002651      0.000842
    5 Atom    -14.602723      0.004372      0.003897     -0.001585
    6 Atom    -14.535828      0.015157      0.001667      0.000565
    7 Atom    -14.606523      0.004676     -0.003482      0.002005
    8 Atom    -14.636688      0.003464     -0.002389     -0.002064
    9 Atom    -18.086037      0.004313     -0.000767     -0.002718
   10 Atom     -1.010405      0.000175     -0.001803     -0.001150
   11 Atom     -1.005483     -0.002535      0.002998     -0.005690
   12 Atom     -1.018264      0.002868     -0.001366      0.002401
   13 Atom     -1.021339      0.003017      0.000045     -0.001149
   14 Atom     -1.008415     -0.003571     -0.001465      0.005213
   15 Atom     -1.015085      0.000889      0.001440      0.000539
   16 Atom     -0.991775      0.000537     -0.001504     -0.005304
   17 Atom     -0.996587     -0.002572      0.001600     -0.001234
   18 Atom     -0.954120     -0.000423     -0.000679      0.006163
   19 Atom     -0.957270     -0.002484      0.003473     -0.003053
   20 Atom     -0.918094     -0.000624     -0.001024     -0.004555
   21 Atom     -0.963042      0.001271      0.005017      0.003733
   22 Atom     -0.954246     -0.003599     -0.003954      0.000066
   23 Atom     -0.994827     -0.000106     -0.001570      0.003007
   24 Atom     -0.997618     -0.000374     -0.003832     -0.000767
   25 Atom     -0.768937     -0.007271      0.001783      0.000823
   26 Atom     -0.765292     -0.004061      0.000392      0.002868
   27 Atom     -0.768390     -0.006893     -0.001388      0.001608
 -----------------------------------------------------------------
 -----------------------------------------------------
    Center         ---- Electric Field Gradient ----
                     XX            YY            ZZ
 -----------------------------------------------------
    1 Atom     -500.287142   -500.263333   -500.297812
    2 Atom     -500.299768   -500.313287   -500.274339
    3 Atom     -500.272026   -500.249646   -500.311506
    4 Atom     -500.363951   -500.198534   -500.212893
    5 Atom     -500.323974   -500.517917   -500.372896
    6 Atom     -501.179997   -500.405168   -500.450262
    7 Atom     -500.305699   -500.377792   -500.372383
    8 Atom     -500.326181   -500.288171   -500.244627
    9 Atom     -812.559621   -812.677611   -812.689177
   10 Atom       -1.831289     -1.829891     -1.709239
   11 Atom       -1.772629     -1.759427     -1.951052
   12 Atom       -1.761371     -1.750664     -1.885746
   13 Atom       -1.853550     -1.729748     -1.820686
   14 Atom       -1.780074     -1.716115     -1.986720
   15 Atom       -1.841800     -1.861447     -1.692633
   16 Atom       -1.700144     -1.678111     -2.030982
   17 Atom       -1.671215     -2.039340     -1.664832
   18 Atom       -1.694558     -1.693052     -2.011506
   19 Atom       -1.810011     -1.798689     -1.804590
   20 Atom       -1.684677     -1.684510     -2.017004
   21 Atom       -1.689517     -1.754850     -1.970996
   22 Atom       -1.880007     -1.860584     -1.692651
   23 Atom       -1.743082     -1.741692     -1.884170
   24 Atom       -1.731150     -1.869617     -1.817368
   25 Atom       -1.632916     -1.725934     -1.691257
   26 Atom       -1.536529     -1.552010     -1.936568
   27 Atom       -1.589703     -1.911420     -1.546858
 -----------------------------------------------------
 -----------------------------------------------------
    Center         ---- Electric Field Gradient ----
                     XY            XZ            YZ
 -----------------------------------------------------
    1 Atom       -0.039053      0.017286      0.030805
    2 Atom        0.007763     -0.007908     -0.049320
    3 Atom        0.048314     -0.031449      0.021014
    4 Atom       -0.053527      0.023392      0.024423
    5 Atom        0.007426     -0.002769     -0.043681
    6 Atom       -0.018826      0.145060     -0.003003
    7 Atom        0.011394     -0.027937      0.111512
    8 Atom        0.068504      0.057124     -0.036370
    9 Atom       -0.001221     -0.012335     -0.007318
   10 Atom        0.163548      0.092774     -0.090667
   11 Atom        0.069528     -0.141445      0.135793
   12 Atom        0.087113     -0.145163      0.128125
   13 Atom       -0.099468      0.166240      0.085846
   14 Atom       -0.044724      0.157106      0.091071
   15 Atom       -0.176396     -0.066999     -0.067267
   16 Atom        0.016791      0.093495     -0.066859
   17 Atom       -0.014203     -0.002560     -0.044109
   18 Atom        0.013585      0.093033     -0.084524
   19 Atom        0.116956     -0.136780      0.127227
   20 Atom        0.009129      0.037855     -0.096940
   21 Atom       -0.033454     -0.075808     -0.152076
   22 Atom       -0.179599      0.052131      0.063091
   23 Atom        0.084914     -0.130092      0.138122
   24 Atom       -0.095445     -0.079751     -0.168846
   25 Atom        0.138420     -0.125649      0.173509
   26 Atom        0.016616      0.066313     -0.104705
   27 Atom       -0.147458     -0.028336     -0.070819
 -----------------------------------------------------
 -----------------------------------------------------
    Center         ---- Electric Field Gradient ----
                   ----       Eigenvalues       ----
 -----------------------------------------------------
    1 Atom     -500.341157   -500.276521   -500.230609
    2 Atom     -500.346922   -500.301637   -500.238835
    3 Atom     -500.348702   -500.273347   -500.211130
    4 Atom     -500.384813   -500.216085   -500.174479
    5 Atom     -500.530257   -500.361332   -500.323198
    6 Atom     -501.208176   -500.424606   -500.402645
    7 Atom     -500.490783   -500.304980   -500.260111
    8 Atom     -500.406445   -500.237348   -500.215187
    9 Atom     -812.693738   -812.674217   -812.558454
   10 Atom       -2.044351     -1.667196     -1.658872
   11 Atom       -2.097798     -1.697365     -1.687946
   12 Atom       -2.059256     -1.673382     -1.665143
   13 Atom       -2.056909     -1.678088     -1.668987
   14 Atom       -2.098331     -1.697118     -1.687461
   15 Atom       -2.053271     -1.675656     -1.666953
   16 Atom       -2.067770     -1.675610     -1.665858
   17 Atom       -2.045020     -1.670734     -1.659634
   18 Atom       -2.056734     -1.680225     -1.662157
   19 Atom       -2.058736     -1.687414     -1.667141
   20 Atom       -2.047380     -1.680550     -1.658261
   21 Atom       -2.067586     -1.679397     -1.668381
   22 Atom       -2.067762     -1.695131     -1.670349
   23 Atom       -2.047549     -1.666041     -1.655354
   24 Atom       -2.061212     -1.684469     -1.672456
   25 Atom       -1.982841     -1.534271     -1.532996
   26 Atom       -1.973913     -1.525953     -1.525241
   27 Atom       -1.982146     -1.533842     -1.531993
 -----------------------------------------------------
 -----------------------------------------------------
    Center         ---- Electric Field Gradient ----
                       ( tensor representation )
                   3XX-RR        3YY-RR        3ZZ-RR
 -----------------------------------------------------
    1 Atom       -0.004380      0.019429     -0.015050
    2 Atom       -0.003970     -0.017489      0.021459
    3 Atom        0.005700      0.028080     -0.033780
    4 Atom       -0.105492      0.059925      0.045566
    5 Atom        0.080955     -0.112988      0.032033
    6 Atom       -0.501522      0.273308      0.228214
    7 Atom        0.046259     -0.025835     -0.020425
    8 Atom       -0.039855     -0.001845      0.041699
    9 Atom        0.082516     -0.035475     -0.047041
   10 Atom       -0.041149     -0.039752      0.080901
   11 Atom        0.055074      0.068276     -0.123349
   12 Atom        0.037890      0.048596     -0.086486
   13 Atom       -0.052222      0.071580     -0.019358
   14 Atom        0.047562      0.111521     -0.159083
   15 Atom       -0.043173     -0.062820      0.105994
   16 Atom        0.102935      0.124968     -0.227903
   17 Atom        0.120580     -0.247544      0.126963
   18 Atom        0.105147      0.106654     -0.211801
   19 Atom       -0.005581      0.005741     -0.000160
   20 Atom        0.110720      0.110887     -0.221607
   21 Atom        0.115604      0.050271     -0.165874
   22 Atom       -0.068926     -0.049504      0.118430
   23 Atom        0.046566      0.047956     -0.094522
   24 Atom        0.074895     -0.063572     -0.011323
   25 Atom        0.050453     -0.042565     -0.007888
   26 Atom        0.138507      0.123026     -0.261532
   27 Atom        0.092957     -0.228760      0.135803
 -----------------------------------------------------
 -----------------------------------------------------
    Center         ---- Electric Field Gradient ----
                       ( tensor representation )
                   ----       Eigenvalues       ----
 -----------------------------------------------------
    1 Atom       -0.058395      0.006241      0.052154
    2 Atom       -0.051124     -0.005839      0.056963
    3 Atom       -0.070976      0.004380      0.066596
    4 Atom       -0.126354      0.042374      0.083980
    5 Atom       -0.125328      0.043597      0.081731
    6 Atom       -0.529700      0.253870      0.275830
    7 Atom       -0.138825      0.046978      0.091847
    8 Atom       -0.120119      0.048979      0.071139
    9 Atom       -0.051601     -0.032081      0.083682
   10 Atom       -0.254211      0.122943      0.131268
   11 Atom       -0.270095      0.130338      0.139757
   12 Atom       -0.259996      0.125878      0.134118
   13 Atom       -0.255581      0.123240      0.132341
   14 Atom       -0.270694      0.130518      0.140176
   15 Atom       -0.254644      0.122971      0.131673
   16 Atom       -0.264691      0.127469      0.137221
   17 Atom       -0.253224      0.121062      0.132162
   18 Atom       -0.257028      0.119480      0.137548
   19 Atom       -0.254306      0.117016      0.137290
   20 Atom       -0.251983      0.114847      0.137136
   21 Atom       -0.262464      0.125725      0.136740
   22 Atom       -0.256681      0.115950      0.140732
   23 Atom       -0.257901      0.123607      0.134294
   24 Atom       -0.255166      0.121576      0.133590
   25 Atom       -0.299472      0.149098      0.150373
   26 Atom       -0.298877      0.149083      0.149795
   27 Atom       -0.299485      0.148818      0.150667
 -----------------------------------------------------
 Calling FoFJK, ICntrl=      2127 FMM=F ISym2X=0 I1Cent= 0 IOpClX= 0 NMat=1 NMatS=1 NMatT=0.
 ***** Axes restored to original set *****
 -------------------------------------------------------------------
 Center     Atomic                   Forces (Hartrees/Bohr)
 Number     Number              X              Y              Z
 -------------------------------------------------------------------
      1        6          -0.011625977   -0.001337123   -0.006246846
      2        6          -0.009643583   -0.010807164   -0.004211481
      3        6           0.003627576   -0.017197349    0.006223074
      4        6           0.010753102   -0.008632718   -0.011175842
      5        6           0.007811480   -0.000852109   -0.013483503
      6        6           0.000737726   -0.009840380    0.003278249
      7        6          -0.003302903   -0.005063190    0.016059628
      8        6          -0.017471040    0.007454594    0.003104177
      9        7           0.006280468    0.025092887   -0.001305172
     10        1           0.014459814    0.002940047    0.002221676
     11        1          -0.002704571   -0.005117820    0.007701309
     12        1           0.004981584    0.006071495   -0.010211083
     13        1           0.002683049    0.005752355    0.012317340
     14        1          -0.002718602    0.000042527   -0.010081488
     15        1          -0.003187606    0.014276625    0.003150327
     16        1           0.005993149   -0.001800929    0.009797544
     17        1          -0.010513620    0.010301289    0.005066478
     18        1          -0.008485778    0.003619412   -0.006366797
     19        1          -0.006581168   -0.005076574    0.007471492
     20        1           0.008028967   -0.004220491    0.009706468
     21        1          -0.003451562    0.007811182   -0.008387331
     22        1           0.000783671   -0.007109532   -0.008734670
     23        1           0.006688322    0.007558111   -0.009609087
     24        1           0.006205509   -0.011407959    0.003230306
     25        1          -0.006104695   -0.002253082    0.015511514
     26        1          -0.007564917    0.009156374   -0.011694788
     27        1           0.014321607   -0.009360479   -0.003331496
 -------------------------------------------------------------------
 Cartesian Forces:  Max     0.025092887 RMS     0.008658882

 GradGradGradGradGradGradGradGradGradGradGradGradGradGradGradGradGradGrad
 Berny optimization.
 FormGI is forming the generalized inverse of G from B-inverse, IUseBI=4.
 Internal  Forces:  Max     0.020014262 RMS     0.005084239
 Search for a local minimum.
 Step number   1 out of a maximum of  162
 All quantities printed in internal units (Hartrees-Bohrs-Radians)
 Mixed Optimization -- RFO/linear search
 Second derivative matrix not updated -- first step.
 ITU=  0
     Eigenvalues ---    0.00265   0.00277   0.00284   0.00529   0.00589
     Eigenvalues ---    0.00915   0.01906   0.01942   0.03042   0.03096
     Eigenvalues ---    0.03167   0.03541   0.03955   0.04328   0.04468
     Eigenvalues ---    0.04519   0.04640   0.04681   0.04722   0.05246
     Eigenvalues ---    0.05264   0.05511   0.05733   0.05737   0.06472
     Eigenvalues ---    0.06910   0.07528   0.07723   0.08725   0.08792
     Eigenvalues ---    0.08816   0.08990   0.09036   0.09046   0.09131
     Eigenvalues ---    0.12558   0.12661   0.12717   0.12911   0.14004
     Eigenvalues ---    0.14793   0.16000   0.16000   0.16000   0.16718
     Eigenvalues ---    0.18845   0.20395   0.21883   0.26772   0.27700
     Eigenvalues ---    0.27808   0.28686   0.28769   0.28785   0.28893
     Eigenvalues ---    0.28948   0.31567   0.31633   0.31650   0.31654
     Eigenvalues ---    0.31687   0.31698   0.31708   0.31793   0.31896
     Eigenvalues ---    0.31908   0.31922   0.32275   0.32288   0.32319
     Eigenvalues ---    0.32343   0.32383   0.40578   0.40579   0.40583
 RFO step:  Lambda=-1.59785378D-02 EMin= 2.65044419D-03
 Linear search not attempted -- first point.
 Iteration  1 RMS(Cart)=  0.03856018 RMS(Int)=  0.00081132
 Iteration  2 RMS(Cart)=  0.00112140 RMS(Int)=  0.00045840
 Iteration  3 RMS(Cart)=  0.00000086 RMS(Int)=  0.00045840
 Variable       Old X    -DE/DX   Delta X   Delta X   Delta X     New X
                                 (Linear)    (Quad)   (Total)
    R1        2.89976   0.00027   0.00000  -0.00098  -0.00106   2.89869
    R2        2.89976   0.00079   0.00000   0.00138   0.00126   2.90102
    R3        2.11520  -0.01486   0.00000  -0.04471  -0.04471   2.07049
    R4        2.10265  -0.00962   0.00000  -0.02836  -0.02836   2.07429
    R5        2.90377   0.00224   0.00000   0.00814   0.00786   2.91163
    R6        2.11035  -0.01285   0.00000  -0.03838  -0.03838   2.07197
    R7        2.11420  -0.01378   0.00000  -0.04139  -0.04139   2.07281
    R8        2.90620   0.00283   0.00000   0.01157   0.01127   2.91746
    R9        2.10149  -0.01037   0.00000  -0.03052  -0.03052   2.07097
   R10        2.11381  -0.01495   0.00000  -0.04489  -0.04489   2.06892
   R11        2.90739  -0.00064   0.00000   0.00008   0.00004   2.90744
   R12        2.10343  -0.01155   0.00000  -0.03410  -0.03410   2.06934
   R13        2.11489  -0.01527   0.00000  -0.04593  -0.04593   2.06895
   R14        2.90506   0.00238   0.00000   0.00875   0.00900   2.91405
   R15        2.10986  -0.01088   0.00000  -0.03246  -0.03246   2.07741
   R16        2.11400  -0.01118   0.00000  -0.03357  -0.03357   2.08043
   R17        2.90303   0.00489   0.00000   0.01455   0.01489   2.91792
   R18        2.84944   0.02001   0.00000   0.06035   0.06035   2.90978
   R19        2.10321  -0.01320   0.00000  -0.03895  -0.03895   2.06426
   R20        2.90659   0.00443   0.00000   0.01309   0.01332   2.91991
   R21        2.10220  -0.01154   0.00000  -0.03399  -0.03399   2.06821
   R22        2.11224  -0.01113   0.00000  -0.03334  -0.03334   2.07890
   R23        2.11013  -0.01381   0.00000  -0.04123  -0.04123   2.06890
   R24        2.11482  -0.01325   0.00000  -0.03985  -0.03985   2.07497
   R25        1.97469  -0.01563   0.00000  -0.03706  -0.03706   1.93763
   R26        1.97476  -0.01632   0.00000  -0.03869  -0.03869   1.93607
   R27        1.97474  -0.01624   0.00000  -0.03851  -0.03851   1.93623
    A1        2.02871   0.00288   0.00000   0.01963   0.01912   2.04783
    A2        1.86996  -0.00006   0.00000   0.00786   0.00779   1.87775
    A3        1.92926  -0.00106   0.00000  -0.01119  -0.01078   1.91848
    A4        1.87245  -0.00101   0.00000  -0.00738  -0.00724   1.86521
    A5        1.92618  -0.00128   0.00000  -0.00752  -0.00750   1.91868
    A6        1.82405   0.00033   0.00000  -0.00300  -0.00309   1.82096
    A7        2.04250  -0.00043   0.00000   0.00269   0.00245   2.04495
    A8        1.90532   0.00035   0.00000   0.00030   0.00041   1.90573
    A9        1.87148  -0.00013   0.00000  -0.00069  -0.00069   1.87079
   A10        1.90428  -0.00051   0.00000  -0.00154  -0.00163   1.90265
   A11        1.87733   0.00137   0.00000   0.00735   0.00758   1.88490
   A12        1.85363  -0.00068   0.00000  -0.00929  -0.00932   1.84431
   A13        2.00863   0.00205   0.00000   0.00650   0.00654   2.01517
   A14        1.93603  -0.00104   0.00000  -0.00272  -0.00280   1.93323
   A15        1.86533   0.00058   0.00000   0.00651   0.00655   1.87188
   A16        1.92789  -0.00143   0.00000  -0.01244  -0.01249   1.91540
   A17        1.89941  -0.00079   0.00000  -0.00091  -0.00094   1.89846
   A18        1.81486   0.00057   0.00000   0.00358   0.00358   1.81844
   A19        2.00317   0.00276   0.00000   0.02161   0.02139   2.02455
   A20        1.94181  -0.00081   0.00000  -0.00947  -0.00914   1.93266
   A21        1.87946   0.00151   0.00000   0.02161   0.02161   1.90106
   A22        1.93676  -0.00220   0.00000  -0.01895  -0.01898   1.91778
   A23        1.85986  -0.00189   0.00000  -0.01597  -0.01626   1.84361
   A24        1.83165   0.00054   0.00000   0.00068   0.00048   1.83213
   A25        2.04424   0.00253   0.00000   0.02577   0.02608   2.07033
   A26        1.89632  -0.00018   0.00000  -0.00754  -0.00745   1.88887
   A27        1.87225  -0.00054   0.00000   0.00102   0.00071   1.87297
   A28        1.91127  -0.00237   0.00000  -0.02759  -0.02751   1.88376
   A29        1.87966  -0.00044   0.00000   0.00158   0.00115   1.88082
   A30        1.85028   0.00094   0.00000   0.00620   0.00622   1.85650
   A31        2.02696  -0.00118   0.00000   0.00945   0.00665   2.03361
   A32        1.79776   0.00435   0.00000   0.05297   0.05116   1.84892
   A33        1.96218  -0.00139   0.00000  -0.03062  -0.03020   1.93198
   A34        1.82551   0.00422   0.00000   0.05494   0.05326   1.87876
   A35        1.96140  -0.00081   0.00000  -0.02650  -0.02609   1.93531
   A36        1.86912  -0.00458   0.00000  -0.05075  -0.04942   1.81970
   A37        2.00764   0.00258   0.00000   0.01459   0.01477   2.02242
   A38        1.91913  -0.00219   0.00000  -0.01989  -0.01987   1.89926
   A39        1.91863  -0.00180   0.00000  -0.01273  -0.01295   1.90568
   A40        1.93286   0.00032   0.00000   0.00934   0.00940   1.94225
   A41        1.85816  -0.00047   0.00000  -0.00531  -0.00532   1.85285
   A42        1.81677   0.00148   0.00000   0.01432   0.01421   1.83098
   A43        2.05235   0.00006   0.00000   0.00872   0.00862   2.06097
   A44        1.90636   0.00049   0.00000   0.00118   0.00105   1.90741
   A45        1.86436   0.00110   0.00000   0.01090   0.01091   1.87527
   A46        1.90607  -0.00122   0.00000  -0.02036  -0.02015   1.88592
   A47        1.87223   0.00008   0.00000   0.00732   0.00696   1.87919
   A48        1.85176  -0.00053   0.00000  -0.00856  -0.00855   1.84321
   A49        1.91131   0.00678   0.00000   0.04024   0.03952   1.95084
   A50        1.91050   0.00173   0.00000   0.00582   0.00576   1.91626
   A51        1.91099   0.00707   0.00000   0.04246   0.04172   1.95271
   A52        1.91041  -0.00497   0.00000  -0.03279  -0.03283   1.87759
   A53        1.91031  -0.00568   0.00000  -0.02428  -0.02556   1.88476
   A54        1.91027  -0.00494   0.00000  -0.03151  -0.03159   1.87868
    D1       -1.12937   0.00146   0.00000   0.01078   0.01116  -1.11822
    D2        1.04347   0.00074   0.00000   0.01101   0.01118   1.05466
    D3        3.04453   0.00005   0.00000  -0.00007   0.00013   3.04467
    D4        3.06100   0.00096   0.00000   0.00185   0.00206   3.06306
    D5       -1.04934   0.00024   0.00000   0.00208   0.00209  -1.04725
    D6        0.95172  -0.00044   0.00000  -0.00900  -0.00896   0.94276
    D7        1.08354   0.00114   0.00000   0.00670   0.00690   1.09044
    D8       -3.02680   0.00041   0.00000   0.00693   0.00693  -3.01987
    D9       -1.02574  -0.00027   0.00000  -0.00416  -0.00412  -1.02986
   D10        1.15893  -0.00075   0.00000  -0.02033  -0.02007   1.13886
   D11       -1.02499   0.00045   0.00000  -0.00021  -0.00002  -1.02501
   D12       -3.02067   0.00026   0.00000   0.00354   0.00376  -3.01691
   D13       -3.03279   0.00027   0.00000  -0.00314  -0.00306  -3.03585
   D14        1.06648   0.00147   0.00000   0.01698   0.01699   1.08347
   D15       -0.92920   0.00127   0.00000   0.02073   0.02077  -0.90843
   D16       -1.05552  -0.00052   0.00000  -0.01439  -0.01418  -1.06970
   D17        3.04375   0.00068   0.00000   0.00572   0.00587   3.04961
   D18        1.04807   0.00048   0.00000   0.00947   0.00965   1.05772
   D19       -0.77862   0.00035   0.00000   0.00808   0.00813  -0.77049
   D20        1.42600  -0.00084   0.00000  -0.00604  -0.00610   1.41990
   D21       -2.88971  -0.00037   0.00000   0.00037   0.00029  -2.88942
   D22       -2.95199   0.00064   0.00000   0.00691   0.00707  -2.94492
   D23       -0.74737  -0.00055   0.00000  -0.00720  -0.00715  -0.75453
   D24        1.22010  -0.00008   0.00000  -0.00079  -0.00076   1.21934
   D25        1.32758   0.00097   0.00000   0.01472   0.01486   1.34244
   D26       -2.75099  -0.00022   0.00000   0.00061   0.00063  -2.75036
   D27       -0.78351   0.00025   0.00000   0.00702   0.00702  -0.77649
   D28        1.78146  -0.00205   0.00000  -0.01956  -0.01984   1.76161
   D29       -0.43587  -0.00060   0.00000  -0.00317  -0.00332  -0.43920
   D30       -2.43407  -0.00168   0.00000  -0.01137  -0.01138  -2.44545
   D31       -0.42733  -0.00105   0.00000  -0.01043  -0.01059  -0.43791
   D32       -2.64466   0.00039   0.00000   0.00596   0.00593  -2.63872
   D33        1.64033  -0.00069   0.00000  -0.00224  -0.00212   1.63821
   D34       -2.40932  -0.00052   0.00000  -0.00755  -0.00771  -2.41703
   D35        1.65653   0.00092   0.00000   0.00884   0.00881   1.66534
   D36       -0.34166  -0.00016   0.00000   0.00064   0.00076  -0.34091
   D37       -1.17563   0.00154   0.00000   0.03020   0.02998  -1.14565
   D38        1.00036   0.00011   0.00000   0.00596   0.00587   1.00623
   D39        2.99345   0.00084   0.00000   0.00998   0.00980   3.00325
   D40        1.04428   0.00080   0.00000   0.01862   0.01838   1.06266
   D41       -3.06292  -0.00064   0.00000  -0.00563  -0.00573  -3.06865
   D42       -1.06983   0.00010   0.00000  -0.00160  -0.00180  -1.07163
   D43        3.02891  -0.00069   0.00000   0.00130   0.00135   3.03026
   D44       -1.07829  -0.00213   0.00000  -0.02294  -0.02276  -1.10105
   D45        0.91480  -0.00139   0.00000  -0.01891  -0.01883   0.89597
   D46        1.19444  -0.00395   0.00000  -0.05797  -0.05790   1.13654
   D47       -3.10494   0.00337   0.00000   0.04655   0.04665  -3.05828
   D48       -1.09889  -0.00017   0.00000   0.00328   0.00306  -1.09583
   D49       -0.97401  -0.00363   0.00000  -0.04395  -0.04386  -1.01787
   D50        1.00979   0.00369   0.00000   0.06056   0.06070   1.07049
   D51        3.01584   0.00015   0.00000   0.01729   0.01710   3.03294
   D52       -2.97851  -0.00328   0.00000  -0.03789  -0.03778  -3.01630
   D53       -0.99471   0.00403   0.00000   0.06663   0.06677  -0.92794
   D54        1.01134   0.00049   0.00000   0.02336   0.02317   1.03451
   D55       -1.75886   0.00375   0.00000   0.04130   0.04113  -1.71773
   D56        0.43737   0.00437   0.00000   0.04872   0.04864   0.48601
   D57        2.42758   0.00393   0.00000   0.04769   0.04771   2.47529
   D58        2.55641  -0.00366   0.00000  -0.06297  -0.06320   2.49321
   D59       -1.53054  -0.00304   0.00000  -0.05555  -0.05569  -1.58623
   D60        0.45967  -0.00349   0.00000  -0.05658  -0.05662   0.40305
   D61        0.53484  -0.00029   0.00000  -0.02186  -0.02181   0.51303
   D62        2.73107   0.00033   0.00000  -0.01444  -0.01431   2.71676
   D63       -1.56190  -0.00012   0.00000  -0.01547  -0.01524  -1.57714
   D64        1.01262  -0.00222   0.00000  -0.04625  -0.04791   0.96471
   D65       -1.08184  -0.00134   0.00000  -0.03430  -0.03563  -1.11747
   D66        3.10726  -0.00068   0.00000  -0.02526  -0.02629   3.08097
   D67        3.13884   0.00024   0.00000   0.01198   0.01302  -3.13133
   D68        1.04438   0.00112   0.00000   0.02393   0.02530   1.06967
   D69       -1.04971   0.00178   0.00000   0.03296   0.03463  -1.01508
   D70       -1.05953  -0.00074   0.00000  -0.01495  -0.01529  -1.07483
   D71        3.12919   0.00014   0.00000  -0.00300  -0.00301   3.12618
[...]
    14  H    0.000885  -0.001756  -0.010203   0.002486  -0.000702  -0.001176
    15  H    0.000461   0.000488   0.002023  -0.000134  -0.000257   0.000629
    16  H   -0.009351   0.010729   0.001755   0.000637  -0.000931   0.001547
    17  H   -0.017445   0.001955  -0.000787   0.000197   0.000065   0.000191
    18  H   -0.066143   0.025010   0.011445  -0.000160  -0.001672   0.000585
    19  H    0.671411  -0.045191  -0.003796  -0.004800   0.000907  -0.000690
    20  H   -0.045191   0.491160   0.016934   0.000145  -0.001070   0.008932
    21  H   -0.003796   0.016934   0.488852  -0.030253  -0.010481   0.011084
    22  H   -0.004800   0.000145  -0.030253   0.583347  -0.005462  -0.016465
    23  H    0.000907  -0.001070  -0.010481  -0.005462   0.495495  -0.012569
    24  H   -0.000690   0.008932   0.011084  -0.016465  -0.012569   0.530062
    25  H    0.006015  -0.012870  -0.003088   0.008082   0.000017  -0.000542
    26  H    0.003350   0.002124  -0.000628  -0.001562   0.000291  -0.000062
    27  H    0.007424  -0.013318  -0.002133  -0.002944   0.000306  -0.001664
              25         26         27
     1  C    0.001641  -0.000593  -0.000741
     2  C   -0.000355   0.000625   0.000385
     3  C    0.000656  -0.000627   0.001178
     4  C    0.009706  -0.000629   0.002430
     5  C    0.024308  -0.016671   0.028036
     6  C   -0.074806   0.037020  -0.032423
     7  C    0.036081  -0.009848   0.007954
     8  C    0.005484  -0.000745   0.005759
     9  N    0.332413   0.336574   0.331200
    10  H    0.000023  -0.000078   0.000107
    11  H    0.000471  -0.000106   0.001226
    12  H    0.000101  -0.000008   0.000159
    13  H   -0.000018   0.000030  -0.000044
    14  H    0.000031   0.000884  -0.000069
    15  H   -0.000095  -0.000038   0.000095
    16  H    0.000232  -0.000215  -0.000452
    17  H    0.000436   0.000145  -0.000235
    18  H   -0.001873  -0.002941  -0.002284
    19  H    0.006015   0.003350   0.007424
    20  H   -0.012870   0.002124  -0.013318
    21  H   -0.003088  -0.000628  -0.002133
    22  H    0.008082  -0.001562  -0.002944
    23  H    0.000017   0.000291   0.000306
    24  H   -0.000542  -0.000062  -0.001664
    25  H    0.375939  -0.020286  -0.004396
    26  H   -0.020286   0.342992  -0.017961
    27  H   -0.004396  -0.017961   0.356182
 Mulliken charges:
               1
     1  C    0.010910
     2  C   -0.638294
     3  C   -0.079084
     4  C   -0.335069
     5  C   -0.371760
     6  C   -0.417399
     7  C   -0.258079
     8  C   -0.444464
     9  N   -0.167229
    10  H    0.224325
    11  H    0.092207
    12  H    0.169433
    13  H    0.169898
    14  H    0.106627
    15  H    0.221186
    16  H    0.177645
    17  H    0.196484
    18  H    0.195669
    19  H    0.125197
    20  H    0.292153
    21  H    0.194743
    22  H    0.168568
    23  H    0.195976
    24  H    0.168478
    25  H    0.316692
    26  H    0.348963
    27  H    0.336225
 Sum of Mulliken charges =   1.00000
 Mulliken charges with hydrogens summed into heavy atoms:
               1
     1  C    0.327441
     2  C   -0.298963
     3  C    0.248729
     4  C    0.039060
     5  C   -0.050895
     6  C   -0.125246
     7  C    0.105232
     8  C   -0.080009
     9  N    0.834650
 Electronic spatial extent (au):  <R**2>=           1385.7189
 Charge=              1.0000 electrons
 Dipole moment (field-independent basis, Debye):
    X=             -9.2441    Y=             -0.3294    Z=             -0.3061  Tot=              9.2550
 Quadrupole moment (field-independent basis, Debye-Ang):
   XX=            -20.2280   YY=            -50.5524   ZZ=            -54.1751
   XY=              1.3722   XZ=              1.0702   YZ=             -0.2468
 Traceless Quadrupole moment (field-independent basis, Debye-Ang):
   XX=             21.4239   YY=             -8.9006   ZZ=            -12.5233
   XY=              1.3722   XZ=              1.0702   YZ=             -0.2468
 Octapole moment (field-independent basis, Debye-Ang**2):
  XXX=           -116.5392  YYY=              0.1080  ZZZ=              0.0800  XYY=             -7.7450
  XXY=             -4.7628  XXZ=             -4.4072  XZZ=            -11.1209  YZZ=             -0.4100
  YYZ=             -0.7884  XYZ=              0.3964
 Hexadecapole moment (field-independent basis, Debye-Ang**3):
 XXXX=           -620.6742 YYYY=           -604.4155 ZZZZ=           -188.9438 XXXY=             17.1093
 XXXZ=             13.9288 YYYX=              9.0505 YYYZ=             -0.2088 ZZZX=              0.9722
 ZZZY=             -1.5478 XXYY=           -239.3891 XXZZ=           -174.3880 YYZZ=           -135.7517
 XXYZ=              0.0852 YYXZ=              4.6108 ZZXY=             -3.2280
 N-N= 5.089950296214D+02 E-N=-1.863987578819D+03  KE= 3.684493813549D+02

 **********************************************************************

            Electrostatic Properties Using The SCF Density

 **********************************************************************

       Atomic Center    1 is at   1.517400 -1.112124 -0.713470
       Atomic Center    2 is at   2.337353 -0.061037  0.046095
       Atomic Center    3 is at   1.583126  1.160229  0.614724
       Atomic Center    4 is at   0.526444  1.792681 -0.317968
       Atomic Center    5 is at  -0.943294  1.406065 -0.051971
       Atomic Center    6 is at  -1.336430 -0.060499 -0.266412
       Atomic Center    7 is at  -0.709134 -1.093529  0.688090
       Atomic Center    8 is at   0.461125 -1.896951  0.077913
       Atomic Center    9 is at  -2.873794 -0.120434 -0.084267
       Atomic Center   10 is at   2.215807 -1.846805 -1.125253
       Atomic Center   11 is at   1.053953 -0.649782 -1.594043
       Atomic Center   12 is at   2.884423 -0.545136  0.862292
       Atomic Center   13 is at   3.102613  0.306865 -0.645423
       Atomic Center   14 is at   1.124880  0.918517  1.578872
       Atomic Center   15 is at   2.332053  1.921496  0.846543
       Atomic Center   16 is at   0.774467  1.601722 -1.367100
       Atomic Center   17 is at   0.560378  2.879207 -0.205556
       Atomic Center   18 is at  -1.189798  1.677987  0.983601
       Atomic Center   19 is at  -1.569262  2.031128 -0.702063
       Atomic Center   20 is at  -1.192479 -0.354245 -1.308995
       Atomic Center   21 is at  -0.399463 -0.585486  1.603512
       Atomic Center   22 is at  -1.470354 -1.822064  0.994827
       Atomic Center   23 is at   0.943654 -2.442505  0.894552
       Atomic Center   24 is at   0.040874 -2.660599 -0.586256
       Atomic Center   25 is at  -3.349479  0.542846 -0.702932
       Atomic Center   26 is at  -3.127837  0.118324  0.879221
       Atomic Center   27 is at  -3.237410 -1.057443 -0.277942
 -----------------------------------------------------------------

              Electrostatic Properties (Atomic Units)

 -----------------------------------------------------------------
    Center     Electric         -------- Electric Field --------
               Potential          X             Y             Z
 -----------------------------------------------------------------
    1 Atom    -14.658475      0.001849      0.000574      0.002387
    2 Atom    -14.667307     -0.001280      0.000448     -0.000072
    3 Atom    -14.659841      0.001660     -0.001256     -0.001811
    4 Atom    -14.640997      0.003558     -0.000375      0.001736
    5 Atom    -14.609183      0.004834      0.001915     -0.000364
    6 Atom    -14.537809      0.013758      0.001365      0.000900
    7 Atom    -14.612362      0.004524     -0.002556     -0.000468
    8 Atom    -14.641874      0.003003      0.000939     -0.001550
    9 Atom    -18.091026      0.010788      0.000214     -0.001603
   10 Atom     -1.014215      0.011592     -0.012089     -0.006787
   11 Atom     -1.009861     -0.007065      0.007084     -0.014277
   12 Atom     -1.022261      0.009131     -0.007891      0.013282
   13 Atom     -1.024902      0.012697      0.005956     -0.011268
   14 Atom     -1.012445     -0.007273     -0.003843      0.015998
   15 Atom     -1.018401      0.012575      0.012548      0.004134
   16 Atom     -0.996911      0.004109     -0.002825     -0.017305
   17 Atom     -0.999876      0.000619      0.018088      0.001690
   18 Atom     -0.962329     -0.003561      0.004667      0.016707
   19 Atom     -0.961203     -0.009523      0.010528     -0.010482
   20 Atom     -0.928368      0.002763     -0.005054     -0.018052
   21 Atom     -0.969598      0.005305      0.008292      0.015600
   22 Atom     -0.957901     -0.011820     -0.011976      0.005439
   23 Atom     -0.999548      0.008052     -0.009108      0.013395
   24 Atom     -0.999501     -0.006661     -0.012655     -0.010849
   25 Atom     -0.772280     -0.009901      0.013527     -0.012741
   26 Atom     -0.771974     -0.005291      0.004892      0.019779
   27 Atom     -0.771713     -0.007543     -0.019282     -0.004030
 -----------------------------------------------------------------
 -----------------------------------------------------
    Center         ---- Electric Field Gradient ----
                     XX            YY            ZZ
 -----------------------------------------------------
    1 Atom     -500.283804   -500.258661   -500.289152
    2 Atom     -500.287244   -500.319814   -500.248472
    3 Atom     -500.269869   -500.248246   -500.297316
    4 Atom     -500.401578   -500.197972   -500.216143
    5 Atom     -500.316303   -500.504125   -500.324928
    6 Atom     -501.358564   -500.473588   -500.493132
    7 Atom     -500.306617   -500.363858   -500.350504
    8 Atom     -500.344140   -500.308568   -500.252993
    9 Atom     -812.535149   -812.617019   -812.615533
   10 Atom       -1.878813     -1.899483     -1.754484
   11 Atom       -1.801598     -1.793573     -1.991910
   12 Atom       -1.802558     -1.788653     -1.945442
   13 Atom       -1.914708     -1.758894     -1.881239
   14 Atom       -1.801471     -1.736494     -2.056368
   15 Atom       -1.914136     -1.923465     -1.719203
   16 Atom       -1.725516     -1.708532     -2.103650
   17 Atom       -1.706969     -2.137232     -1.698919
   18 Atom       -1.717616     -1.722325     -2.076723
   19 Atom       -1.849607     -1.840126     -1.848592
   20 Atom       -1.730821     -1.730461     -2.099004
   21 Atom       -1.734777     -1.804390     -2.010147
   22 Atom       -1.927928     -1.889597     -1.727138
   23 Atom       -1.781609     -1.797962     -1.942038
   24 Atom       -1.779214     -1.913345     -1.866769
   25 Atom       -1.673958     -1.785796     -1.759465
   26 Atom       -1.593108     -1.592657     -2.024362
   27 Atom       -1.628301     -2.007304     -1.586685
 -----------------------------------------------------
 -----------------------------------------------------
    Center         ---- Electric Field Gradient ----
                     XY            XZ            YZ
 -----------------------------------------------------
    1 Atom       -0.057237      0.018343      0.030062
    2 Atom        0.010644     -0.010670     -0.067194
    3 Atom        0.073472     -0.041579      0.017000
    4 Atom       -0.055481      0.022206      0.033844
    5 Atom       -0.016574     -0.001397     -0.035840
    6 Atom       -0.031390      0.125698      0.005740
    7 Atom        0.044502     -0.032904      0.121635
    8 Atom        0.071809      0.076477     -0.043331
    9 Atom       -0.001833     -0.012556     -0.004380
   10 Atom        0.187119      0.107225     -0.111345
   11 Atom        0.078695     -0.152752      0.151945
   12 Atom        0.097568     -0.164744      0.144346
   13 Atom       -0.105202      0.195944      0.091419
   14 Atom       -0.041642      0.168161      0.092219
   15 Atom       -0.210332     -0.064911     -0.063166
   16 Atom        0.017478      0.093206     -0.078257
   17 Atom       -0.012580     -0.002303     -0.047986
   18 Atom        0.016605      0.095405     -0.097263
   19 Atom        0.132576     -0.153547      0.144931
   20 Atom        0.012973      0.050358     -0.112890
   21 Atom       -0.055861     -0.108142     -0.173789
   22 Atom       -0.197979      0.076909      0.082691
   23 Atom        0.099167     -0.142347      0.163952
   24 Atom       -0.118259     -0.102009     -0.187714
   25 Atom        0.153765     -0.145124      0.205035
   26 Atom        0.029080      0.117413     -0.114043
   27 Atom       -0.166054     -0.035722     -0.091992
 -----------------------------------------------------
 -----------------------------------------------------
    Center         ---- Electric Field Gradient ----
                   ----       Eigenvalues       ----
 -----------------------------------------------------
    1 Atom     -500.348624   -500.272414   -500.210579
    2 Atom     -500.360401   -500.289680   -500.205449
    3 Atom     -500.361904   -500.270732   -500.182796
    4 Atom     -500.420159   -500.228200   -500.167336
    5 Atom     -500.512422   -500.318815   -500.314119
    6 Atom     -501.377576   -500.475731   -500.471977
    7 Atom     -500.495033   -500.291335   -500.234611
    8 Atom     -500.440771   -500.255471   -500.209459
    9 Atom     -812.621853   -812.612631   -812.533218
   10 Atom       -2.138734     -1.701907     -1.692139
   11 Atom       -2.157190     -1.719789     -1.710102
   12 Atom       -2.139961     -1.702799     -1.693893
   13 Atom       -2.144917     -1.710081     -1.699843
   14 Atom       -2.163847     -1.719761     -1.710726
   15 Atom       -2.148292     -1.708957     -1.699555
   16 Atom       -2.140267     -1.703843     -1.693588
   17 Atom       -2.142797     -1.706663     -1.693659
   18 Atom       -2.124571     -1.703571     -1.688522
   19 Atom       -2.133819     -1.712375     -1.692132
   20 Atom       -2.137481     -1.724228     -1.698576
   21 Atom       -2.145261     -1.707860     -1.696193
   22 Atom       -2.138466     -1.714497     -1.691700
   23 Atom       -2.134342     -1.699050     -1.688217
   24 Atom       -2.145748     -1.712921     -1.700658
   25 Atom       -2.086461     -1.567371     -1.565387
   26 Atom       -2.082532     -1.564383     -1.563212
   27 Atom       -2.089144     -1.567835     -1.565311
 -----------------------------------------------------
 -----------------------------------------------------
    Center         ---- Electric Field Gradient ----
                       ( tensor representation )
                   3XX-RR        3YY-RR        3ZZ-RR
 -----------------------------------------------------
    1 Atom       -0.006598      0.018544     -0.011946
    2 Atom       -0.002067     -0.034638      0.036705
    3 Atom        0.001941      0.023565     -0.025506
    4 Atom       -0.129680      0.073926      0.055755
    5 Atom        0.065483     -0.122339      0.056857
    6 Atom       -0.583469      0.301507      0.281963
    7 Atom        0.033709     -0.023531     -0.010178
    8 Atom       -0.042240     -0.006667      0.048908
    9 Atom        0.054085     -0.027785     -0.026299
   10 Atom       -0.034553     -0.055223      0.089776
   11 Atom        0.060762      0.068787     -0.129550
   12 Atom        0.042993      0.056898     -0.099891
   13 Atom       -0.063094      0.092719     -0.029625
   14 Atom        0.063306      0.128284     -0.191590
   15 Atom       -0.061868     -0.071198      0.133065
   16 Atom        0.120383      0.137368     -0.257751
   17 Atom        0.140738     -0.289526      0.148788
   18 Atom        0.121272      0.116563     -0.237835
   19 Atom       -0.003498      0.005982     -0.002484
   20 Atom        0.122607      0.122968     -0.245575
   21 Atom        0.114994      0.045382     -0.160376
   22 Atom       -0.079707     -0.041376      0.121082
   23 Atom        0.058927      0.042574     -0.101501
   24 Atom        0.073896     -0.060236     -0.013660
   25 Atom        0.065782     -0.046057     -0.019725
   26 Atom        0.143601      0.144052     -0.287653
   27 Atom        0.112462     -0.266541      0.154078
 -----------------------------------------------------
 -----------------------------------------------------
    Center         ---- Electric Field Gradient ----
                       ( tensor representation )
                   ----       Eigenvalues       ----
 -----------------------------------------------------
    1 Atom       -0.071418      0.004791      0.066627
    2 Atom       -0.075224     -0.004503      0.079728
    3 Atom       -0.090093      0.001079      0.089014
    4 Atom       -0.148261      0.043698      0.104562
    5 Atom       -0.130637      0.062970      0.067667
    6 Atom       -0.602481      0.299364      0.303117
    7 Atom       -0.154707      0.048991      0.105716
    8 Atom       -0.138871      0.046429      0.092442
    9 Atom       -0.032619     -0.023397      0.056016
   10 Atom       -0.294474      0.142353      0.152121
   11 Atom       -0.294830      0.142571      0.152258
   12 Atom       -0.294410      0.142752      0.151658
   13 Atom       -0.293304      0.141533      0.151771
   14 Atom       -0.299069      0.145017      0.154052
   15 Atom       -0.296024      0.143311      0.152713
   16 Atom       -0.294368      0.142057      0.152311
   17 Atom       -0.295091      0.141043      0.154047
   18 Atom       -0.285683      0.135317      0.150366
   19 Atom       -0.287710      0.133734      0.153976
   20 Atom       -0.284052      0.129200      0.154852
   21 Atom       -0.295489      0.141911      0.153578
   22 Atom       -0.290245      0.133724      0.156521
   23 Atom       -0.293806      0.141486      0.152319
   24 Atom       -0.292638      0.140188      0.152451
   25 Atom       -0.346721      0.172369      0.174353
   26 Atom       -0.345823      0.172326      0.173497
   27 Atom       -0.348381      0.172928      0.175453
 -----------------------------------------------------

 Test job not archived.
 1|1|UNPC-NP-ALMACH|FOpt|RB3LYP|6-311++G(d,p)|C8H18N1(1+)|HERA|06-Aug-2
 018|0||# RB3LYP/6-311++G** Opt Test prop=EFG||C8NH18||1,1|C,-1.5355165
 619,-0.5131761062,-0.3375336919|C,-0.9437259739,-1.9286419218,-0.32063
 52284|C,0.5920034843,-2.0606220554,-0.2322875998|C,1.403021878,-1.0891
 477218,-1.118273584|C,1.9827029503,0.157315911,-0.4178074645|C,0.98570
 99153,1.1790094269,0.142101295|C,0.1022042653,0.7151456337,1.315120403
 1|C,-1.345775168,0.3511366369,0.9174244808|N,1.8351709933,2.377370318,
 0.6346510327|H,-2.6136808797,-0.6039341967,-0.500068443|H,-1.169113912
 3,0.0271600769,-1.219429194|H,-1.3915248518,-2.5014960784,0.4985898134
 |H,-1.2725310335,-2.4225139446,-1.2410423197|H,0.9290556431,-1.9797470
 927,0.805908275|H,0.8445959194,-3.0820710234,-0.5272413163|H,0.8174046
 981,-0.7833009669,-1.9912971916|H,2.2697634128,-1.6183971219,-1.521982
 3244|H,2.6271994174,-0.1782219503,0.4062999862|H,2.6319531313,0.667430
 4258,-1.1412833303|H,0.378409838,1.609765384,-0.6576639014|H,0.5923158
 849,-0.121838159,1.8163698094|H,0.0357603825,1.5136682825,2.0649561416
 |H,-1.8062560819,-0.1437417492,1.7778978178|H,-1.9041782013,1.28285852
 95,0.7726171558|H,2.4408448155,2.7367258361,-0.1089787731|H,2.43719290
 92,2.0912003844,1.4128080538|H,1.2437731255,3.1444282426,0.9656830978|
 |Version=EM64W-G09RevD.01|State=1-A|HF=-370.3153087|RMSD=6.938e-009|RM
 SF=1.288e-005|Dipole=1.8617919,3.0541704,0.6812644|Quadrupole=-1.24485
 32,8.9353191,-7.6904659,10.0209919,1.3771597,4.6061547|PG=C01 [X(C8H18
 N1)]||@


 THE TEST OF A FIRST RATE INTELLIGENCE IS THE ABILITY TO HOLD TWO OPPOSED
 IDEAS IN THE MIND AT THE SAME TIME, AND STILL RETAIN THE ABILITY TO FUNCTION.
 ONE SHOULD, FOR EXAMPLE, BE ABLE TO SEE THAT THINGS ARE HOPELESS AND YET BE
 DETERMINED TO MAKE THEM OTHERWISE.

                                                       -- F. SCOTT FITZGERALD
 Job cpu time:       0 days  0 hours 17 minutes 29.0 seconds.
 File lengths (MBytes):  RWF=     49 Int=      0 D2E=      0 Chk=      8 Scr=      1
 Normal termination of Gaussian 09 at Mon Aug 06 23:24:50 2018.
