 Entering Link 1 = C:\G09W\l1.exe PID=      9788.
  
 Copyright (c) 1988,1990,1992,1993,1995,1998,2003,2009,2013,
            Gaussian, Inc.  All Rights Reserved.
  
 This is part of the Gaussian(R) 09 program.  It is based on
 the Gaussian(R) 03 system (copyright 2003, Gaussian, Inc.),
 the Gaussian(R) 98 system (copyright 1998, Gaussian, Inc.),
 the Gaussian(R) 94 system (copyright 1995, Gaussian, Inc.),
 the Gaussian 92(TM) system (copyright 1992, Gaussian, Inc.),
 the Gaussian 90(TM) system (copyright 1990, Gaussian, Inc.),
 the Gaussian 88(TM) system (copyright 1988, Gaussian, Inc.),
 the Gaussian 86(TM) system (copyright 1986, Carnegie Mellon
 University), and the Gaussian 82(TM) system (copyright 1983,
 Carnegie Mellon University). Gaussian is a federally registered
 trademark of Gaussian, Inc.
  
 This software contains proprietary and confidential information,
 including trade secrets, belonging to Gaussian, Inc.
  
 This software is provided under written license and may be
 used, copied, transmitted, or stored only in accord with that
 written license.
  
 The following legend is applicable only to US Government
 contracts under FAR:
  
                    RESTRICTED RIGHTS LEGEND
  
 Use, reproduction and disclosure by the US Government is
 subject to restrictions as set forth in subparagraphs (a)
 and (c) of the Commercial Computer Software - Restricted
 Rights clause in FAR 52.227-19.
  
 Gaussian, Inc.
 340 Quinnipiac St., Bldg. 40, Wallingford CT 06492
  
  
 ---------------------------------------------------------------
 Warning -- This program may not be used in any manner that
 competes with the business of Gaussian, Inc. or will provide
 assistance to any competitor of Gaussian, Inc.  The licensee
 of this program is prohibited from giving any competitor of
 Gaussian, Inc. access to this program.  By using this program,
 the user acknowledges that Gaussian, Inc. is engaged in the
 business of creating and licensing software in the field of
 computational chemistry and represents and warrants to the
 licensee that it is not a competitor of Gaussian, Inc. and that
 it will not use this program in any manner prohibited above.
 ---------------------------------------------------------------
  

 Cite this work as:
 Gaussian 09, Revision D.01,
 M. J. Frisch, G. W. Trucks, H. B. Schlegel, G. E. Scuseria, 
 M. A. Robb, J. R. Cheeseman, G. Scalmani, V. Barone, B. Mennucci, 
 G. A. Petersson, H. Nakatsuji, M. Caricato, X. Li, H. P. Hratchian, 
 A. F. Izmaylov, J. Bloino, G. Zheng, J. L. Sonnenberg, M. Hada, 
 M. Ehara, K. Toyota, R. Fukuda, J. Hasegawa, M. Ishida, T. Nakajima, 
 Y. Honda, O. Kitao, H. Nakai, T. Vreven, J. A. Montgomery, Jr., 
 J. E. Peralta, F. Ogliaro, M. Bearpark, J. J. Heyd, E. Brothers, 
 K. N. Kudin, V. N. Staroverov, T. Keith, R. Kobayashi, J. Normand, 
 K. Raghavachari, A. Rendell, J. C. Burant, S. S. Iyengar, J. Tomasi, 
 M. Cossi, N. Rega, J. M. Millam, M. Klene, J. E. Knox, J. B. Cross, 
 V. Bakken, C. Adamo, J. Jaramillo, R. Gomperts, R. E. Stratmann, 
 O. Yazyev, A. J. Austin, R. Cammi, C. Pomelli, J. W. Ochterski, 
 R. L. Martin, K. Morokuma, V. G. Zakrzewski, G. A. Voth, 
 P. Salvador, J. J. Dannenberg, S. Dapprich, A. D. Daniels, 
 O. Farkas, J. B. Foresman, J. V. Ortiz, J. Cioslowski, 
 and D. J. Fox, Gaussian, Inc., Wallingford CT, 2013.
 
 ******************************************
 Gaussian 09:  EM64W-G09RevD.01 13-Apr-2013
                15-Aug-2018 
 ******************************************
 %Chk=Anth_300.chk
 %Mem=64GB
 %NProcShared=20
 Will use up to   20 processors via shared memory.
 -------------------------------------
 # RB3LYP/6-311++G** Opt Test prop=EFG
 -------------------------------------
 1/14=-1,18=20,19=15,26=3,38=1/1,3;
 2/9=110,12=2,17=6,18=5,40=1/2;
 3/5=4,6=6,7=1111,11=2,16=1,25=1,30=1,71=1,74=-5,116=1/1,2,3;
 4//1;
 5/5=2,38=5/2;
 6/7=2,8=2,9=2,10=2,14=1,28=1/1,2;
 7//1,2,3,16;
 1/14=-1,18=20,19=15,26=3/3(2);
 2/9=110/2;
 99//99;
 2/9=110/2;
 3/5=4,6=6,7=1111,11=2,16=1,25=1,30=1,71=1,74=-5,116=1/1,2,3;
 4/5=5,16=3,69=1/1;
 5/5=2,38=5/2;
 7//1,2,3,16;
 1/14=-1,18=20,19=15,26=3/3(-5);
 2/9=110/2;
 6/7=2,8=2,9=2,10=2,14=1,19=2,28=1/1,2;
 99/9=1/99;
 -------
 C10NH20
 -------
 Symbolic Z-matrix:
 Charge =  1 Multiplicity = 1
 C                    -1.5208    1.6558   -0.1047 
 C                    -0.0843    1.7823   -0.6472 
 C                     0.5199    0.3866   -0.3555 
 C                     0.7057    0.2258    1.1716 
 C                    -0.7337    0.1582    1.7074 
 C                    -1.5568    0.1957    0.3986 
 C                    -0.6778   -0.5653   -0.6249 
 C                    -1.2341   -0.5541   -2.0645 
 C                    -0.4534   -2.0513   -0.2727 
 H                     1.3139   -0.6677    1.4357 
 C                     1.7954    0.1098   -1.1508 
 N                     1.3883    1.4275    1.7542 
 H                    -1.7352    2.3883    0.7057 
 H                    -2.28      1.8273   -0.9014 
 H                    -0.0821    2.002    -1.7385 
 H                     0.4815    2.6153   -0.1777 
 H                    -0.913    -0.7887    2.2658 
 H                    -0.9945    0.9912    2.3971 
 H                    -2.5879   -0.203     0.516 
 H                    -0.5222   -1.0426   -2.7674 
 H                    -2.1944   -1.1158   -2.1136 
 H                    -1.4455    0.4481   -2.4873 
 H                    -1.4111   -2.6153   -0.3429 
 H                     0.2664   -2.5213   -0.9799 
 H                    -0.0613   -2.247     0.7452 
 H                     2.1905   -0.9089   -0.9409 
 H                     1.614     0.1854   -2.246 
 H                     2.5879    0.8452   -0.8851 
 H                     1.5796    1.2574    2.7674 
 H                     2.2897    1.5947    1.2528 
 H                     0.773     2.2663    1.6595 
 

 GradGradGradGradGradGradGradGradGradGradGradGradGradGradGradGradGradGrad
 Berny optimization.
 Initialization pass.
                           ----------------------------
                           !    Initial Parameters    !
                           ! (Angstroms and Degrees)  !
 --------------------------                            --------------------------
 ! Name  Definition              Value          Derivative Info.                !
 --------------------------------------------------------------------------------
 ! R1    R(1,2)                  1.5407         estimate D2E/DX2                !
 ! R2    R(1,6)                  1.5448         estimate D2E/DX2                !
 ! R3    R(1,13)                 1.1132         estimate D2E/DX2                !
 ! R4    R(1,14)                 1.1138         estimate D2E/DX2                !
 ! R5    R(2,3)                  1.5486         estimate D2E/DX2                !
 ! R6    R(2,15)                 1.1132         estimate D2E/DX2                !
 ! R7    R(2,16)                 1.1111         estimate D2E/DX2                !
 ! R8    R(3,4)                  1.5467         estimate D2E/DX2                !
 ! R9    R(3,7)                  1.5534         estimate D2E/DX2                !
 ! R10   R(3,11)                 1.5284         estimate D2E/DX2                !
 ! R11   R(4,5)                  1.5374         estimate D2E/DX2                !
 ! R12   R(4,10)                 1.1127         estimate D2E/DX2                !
 ! R13   R(4,12)                 1.4998         estimate D2E/DX2                !
 ! R14   R(5,6)                  1.5466         estimate D2E/DX2                !
 ! R15   R(5,17)                 1.1138         estimate D2E/DX2                !
 ! R16   R(5,18)                 1.1125         estimate D2E/DX2                !
 ! R17   R(6,7)                  1.549          estimate D2E/DX2                !
 ! R18   R(6,19)                 1.1117         estimate D2E/DX2                !
 ! R19   R(7,8)                  1.5434         estimate D2E/DX2                !
 ! R20   R(7,9)                  1.5436         estimate D2E/DX2                !
 ! R21   R(8,20)                 1.1133         estimate D2E/DX2                !
 ! R22   R(8,21)                 1.1136         estimate D2E/DX2                !
 ! R23   R(8,22)                 1.1081         estimate D2E/DX2                !
 ! R24   R(9,23)                 1.1136         estimate D2E/DX2                !
 ! R25   R(9,24)                 1.1132         estimate D2E/DX2                !
 ! R26   R(9,25)                 1.1082         estimate D2E/DX2                !
 ! R27   R(11,26)                1.1126         estimate D2E/DX2                !
 ! R28   R(11,27)                1.1127         estimate D2E/DX2                !
 ! R29   R(11,28)                1.1133         estimate D2E/DX2                !
 ! R30   R(12,29)                1.045          estimate D2E/DX2                !
 ! R31   R(12,30)                1.0449         estimate D2E/DX2                !
 ! R32   R(12,31)                1.0446         estimate D2E/DX2                !
 ! A1    A(2,1,6)              102.3594         estimate D2E/DX2                !
 ! A2    A(2,1,13)             112.4493         estimate D2E/DX2                !
 ! A3    A(2,1,14)             111.7785         estimate D2E/DX2                !
 ! A4    A(6,1,13)             112.3491         estimate D2E/DX2                !
 ! A5    A(6,1,14)             111.2657         estimate D2E/DX2                !
 ! A6    A(13,1,14)            106.7459         estimate D2E/DX2                !
 ! A7    A(1,2,3)              102.9115         estimate D2E/DX2                !
 ! A8    A(1,2,15)             111.2985         estimate D2E/DX2                !
 ! A9    A(1,2,16)             112.8029         estimate D2E/DX2                !
 ! A10   A(3,2,15)             111.2085         estimate D2E/DX2                !
 ! A11   A(3,2,16)             113.4177         estimate D2E/DX2                !
 ! A12   A(15,2,16)            105.3838         estimate D2E/DX2                !
 ! A13   A(2,3,4)              109.0587         estimate D2E/DX2                !
 ! A14   A(2,3,7)              102.638          estimate D2E/DX2                !
 ! A15   A(2,3,11)             113.005          estimate D2E/DX2                !
 ! A16   A(4,3,7)              101.5446         estimate D2E/DX2                !
 ! A17   A(4,3,11)             113.245          estimate D2E/DX2                !
 ! A18   A(7,3,11)             116.2448         estimate D2E/DX2                !
 ! A19   A(3,4,5)              103.662          estimate D2E/DX2                !
 ! A20   A(3,4,10)             112.5502         estimate D2E/DX2                !
 ! A21   A(3,4,12)             110.7866         estimate D2E/DX2                !
 ! A22   A(5,4,10)             113.1881         estimate D2E/DX2                !
 ! A23   A(5,4,12)             109.0243         estimate D2E/DX2                !
 ! A24   A(10,4,12)            107.6039         estimate D2E/DX2                !
 ! A25   A(4,5,6)              101.671          estimate D2E/DX2                !
 ! A26   A(4,5,17)             111.2739         estimate D2E/DX2                !
 ! A27   A(4,5,18)             113.7432         estimate D2E/DX2                !
 ! A28   A(6,5,17)             111.0514         estimate D2E/DX2                !
 ! A29   A(6,5,18)             112.4412         estimate D2E/DX2                !
 ! A30   A(17,5,18)            106.7393         estimate D2E/DX2                !
 ! A31   A(1,6,5)              106.6321         estimate D2E/DX2                !
 ! A32   A(1,6,7)              103.6417         estimate D2E/DX2                !
 ! A33   A(1,6,19)             113.2649         estimate D2E/DX2                !
 ! A34   A(5,6,7)              104.1966         estimate D2E/DX2                !
 ! A35   A(5,6,19)             113.3006         estimate D2E/DX2                !
 ! A36   A(7,6,19)             114.8287         estimate D2E/DX2                !
 ! A37   A(3,7,6)               91.2538         estimate D2E/DX2                !
 ! A38   A(3,7,8)              115.7988         estimate D2E/DX2                !
 ! A39   A(3,7,9)              115.9929         estimate D2E/DX2                !
 ! A40   A(6,7,8)              114.0932         estimate D2E/DX2                !
 ! A41   A(6,7,9)              113.8724         estimate D2E/DX2                !
 ! A42   A(8,7,9)              105.7961         estimate D2E/DX2                !
 ! A43   A(7,8,20)             110.8076         estimate D2E/DX2                !
 ! A44   A(7,8,21)             110.3827         estimate D2E/DX2                !
 ! A45   A(7,8,22)             115.5455         estimate D2E/DX2                !
 ! A46   A(20,8,21)            107.5931         estimate D2E/DX2                !
 ! A47   A(20,8,22)            106.1373         estimate D2E/DX2                !
 ! A48   A(21,8,22)            105.9538         estimate D2E/DX2                !
 ! A49   A(7,9,23)             110.3744         estimate D2E/DX2                !
 ! A50   A(7,9,24)             110.8252         estimate D2E/DX2                !
 ! A51   A(7,9,25)             115.532          estimate D2E/DX2                !
 ! A52   A(23,9,24)            107.5896         estimate D2E/DX2                !
 ! A53   A(23,9,25)            105.8268         estimate D2E/DX2                !
 ! A54   A(24,9,25)            106.2712         estimate D2E/DX2                !
 ! A55   A(3,11,26)            111.3461         estimate D2E/DX2                !
 ! A56   A(3,11,27)            111.3343         estimate D2E/DX2                !
 ! A57   A(3,11,28)            110.5019         estimate D2E/DX2                !
 ! A58   A(26,11,27)           107.8057         estimate D2E/DX2                !
 ! A59   A(26,11,28)           107.8779         estimate D2E/DX2                !
 ! A60   A(27,11,28)           107.8228         estimate D2E/DX2                !
 ! A61   A(4,12,29)            109.239          estimate D2E/DX2                !
 ! A62   A(4,12,30)            109.5373         estimate D2E/DX2                !
 ! A63   A(4,12,31)            109.8823         estimate D2E/DX2                !
 ! A64   A(29,12,30)           109.4726         estimate D2E/DX2                !
 ! A65   A(29,12,31)           109.0521         estimate D2E/DX2                !
 ! A66   A(30,12,31)           109.6419         estimate D2E/DX2                !
 ! D1    D(6,1,2,3)             -1.1232         estimate D2E/DX2                !
 ! D2    D(6,1,2,15)           118.0679         estimate D2E/DX2                !
 ! D3    D(6,1,2,16)          -123.7176         estimate D2E/DX2                !
 ! D4    D(13,1,2,3)           119.6555         estimate D2E/DX2                !
 ! D5    D(13,1,2,15)         -121.1533         estimate D2E/DX2                !
 ! D6    D(13,1,2,16)           -2.9388         estimate D2E/DX2                !
 ! D7    D(14,1,2,3)          -120.292          estimate D2E/DX2                !
 ! D8    D(14,1,2,15)           -1.1008         estimate D2E/DX2                !
 ! D9    D(14,1,2,16)          117.1137         estimate D2E/DX2                !
 ! D10   D(2,1,6,5)             74.0304         estimate D2E/DX2                !
 ! D11   D(2,1,6,7)            -35.5961         estimate D2E/DX2                !
 ! D12   D(2,1,6,19)          -160.6737         estimate D2E/DX2                !
 ! D13   D(13,1,6,5)           -46.8176         estimate D2E/DX2                !
 ! D14   D(13,1,6,7)          -156.4441         estimate D2E/DX2                !
 ! D15   D(13,1,6,19)           78.4783         estimate D2E/DX2                !
 ! D16   D(14,1,6,5)          -166.4413         estimate D2E/DX2                !
 ! D17   D(14,1,6,7)            83.9323         estimate D2E/DX2                !
 ! D18   D(14,1,6,19)          -41.1453         estimate D2E/DX2                !
 ! D19   D(1,2,3,4)            -69.8651         estimate D2E/DX2                !
 ! D20   D(1,2,3,7)             37.26           estimate D2E/DX2                !
 ! D21   D(1,2,3,11)           163.2428         estimate D2E/DX2                !
 ! D22   D(15,2,3,4)           170.8812         estimate D2E/DX2                !
 ! D23   D(15,2,3,7)           -81.9938         estimate D2E/DX2                !
 ! D24   D(15,2,3,11)           43.9891         estimate D2E/DX2                !
 ! D25   D(16,2,3,4)            52.3156         estimate D2E/DX2                !
 ! D26   D(16,2,3,7)           159.4407         estimate D2E/DX2                !
 ! D27   D(16,2,3,11)          -74.5765         estimate D2E/DX2                !
 ! D28   D(2,3,4,5)             68.4641         estimate D2E/DX2                !
 ! D29   D(2,3,4,10)          -168.873          estimate D2E/DX2                !
 ! D30   D(2,3,4,12)           -48.3492         estimate D2E/DX2                !
 ! D31   D(7,3,4,5)            -39.404          estimate D2E/DX2                !
 ! D32   D(7,3,4,10)            83.2589         estimate D2E/DX2                !
 ! D33   D(7,3,4,12)          -156.2173         estimate D2E/DX2                !
 ! D34   D(11,3,4,5)          -164.7807         estimate D2E/DX2                !
 ! D35   D(11,3,4,10)          -42.1179         estimate D2E/DX2                !
 ! D36   D(11,3,4,12)           78.406          estimate D2E/DX2                !
 ! D37   D(2,3,7,6)            -56.0705         estimate D2E/DX2                !
 ! D38   D(2,3,7,8)             61.5817         estimate D2E/DX2                !
 ! D39   D(2,3,7,9)           -173.5236         estimate D2E/DX2                !
 ! D40   D(4,3,7,6)             56.7196         estimate D2E/DX2                !
 ! D41   D(4,3,7,8)            174.3718         estimate D2E/DX2                !
 ! D42   D(4,3,7,9)            -60.7336         estimate D2E/DX2                !
 ! D43   D(11,3,7,6)          -179.9258         estimate D2E/DX2                !
 ! D44   D(11,3,7,8)           -62.2736         estimate D2E/DX2                !
 ! D45   D(11,3,7,9)            62.621          estimate D2E/DX2                !
 ! D46   D(2,3,11,26)         -178.4898         estimate D2E/DX2                !
 ! D47   D(2,3,11,27)          -58.1514         estimate D2E/DX2                !
 ! D48   D(2,3,11,28)           61.6409         estimate D2E/DX2                !
 ! D49   D(4,3,11,26)           56.8673         estimate D2E/DX2                !
 ! D50   D(4,3,11,27)          177.2057         estimate D2E/DX2                !
 ! D51   D(4,3,11,28)          -63.002          estimate D2E/DX2                !
 ! D52   D(7,3,11,26)          -60.1731         estimate D2E/DX2                !
 ! D53   D(7,3,11,27)           60.1653         estimate D2E/DX2                !
 ! D54   D(7,3,11,28)          179.9576         estimate D2E/DX2                !
 ! D55   D(3,4,5,6)              3.5902         estimate D2E/DX2                !
 ! D56   D(3,4,5,17)           121.887          estimate D2E/DX2                !
 ! D57   D(3,4,5,18)          -117.5208         estimate D2E/DX2                !
 ! D58   D(10,4,5,6)          -118.6495         estimate D2E/DX2                !
 ! D59   D(10,4,5,17)           -0.3527         estimate D2E/DX2                !
 ! D60   D(10,4,5,18)          120.2395         estimate D2E/DX2                !
 ! D61   D(12,4,5,6)           121.6333         estimate D2E/DX2                !
 ! D62   D(12,4,5,17)         -120.07           estimate D2E/DX2                !
 ! D63   D(12,4,5,18)            0.5223         estimate D2E/DX2                !
 ! D64   D(3,4,12,29)         -174.8942         estimate D2E/DX2                !
 ! D65   D(3,4,12,30)          -54.9942         estimate D2E/DX2                !
 ! D66   D(3,4,12,31)           65.5109         estimate D2E/DX2                !
 ! D67   D(5,4,12,29)           71.6451         estimate D2E/DX2                !
 ! D68   D(5,4,12,30)         -168.4549         estimate D2E/DX2                !
 ! D69   D(5,4,12,31)          -47.9498         estimate D2E/DX2                !
 ! D70   D(10,4,12,29)         -51.473          estimate D2E/DX2                !
 ! D71   D(10,4,12,30)          68.427          estimate D2E/DX2                !
 ! D72   D(10,4,12,31)        -171.068          estimate D2E/DX2                !
 ! D73   D(4,5,6,1)            -75.5076         estimate D2E/DX2                !
 ! D74   D(4,5,6,7)             33.7291         estimate D2E/DX2                !
 ! D75   D(4,5,6,19)           159.2182         estimate D2E/DX2                !
 ! D76   D(17,5,6,1)           166.0362         estimate D2E/DX2                !
 ! D77   D(17,5,6,7)           -84.7271         estimate D2E/DX2                !
 ! D78   D(17,5,6,19)           40.762          estimate D2E/DX2                !
 ! D79   D(18,5,6,1)            46.5071         estimate D2E/DX2                !
 ! D80   D(18,5,6,7)           155.7438         estimate D2E/DX2                !
 ! D81   D(18,5,6,19)          -78.7671         estimate D2E/DX2                !
 ! D82   D(1,6,7,3)             55.822          estimate D2E/DX2                !
 ! D83   D(1,6,7,8)            -63.2984         estimate D2E/DX2                !
 ! D84   D(1,6,7,9)            175.1009         estimate D2E/DX2                !
 ! D85   D(5,6,7,3)            -55.5984         estimate D2E/DX2                !
 ! D86   D(5,6,7,8)           -174.7188         estimate D2E/DX2                !
 ! D87   D(5,6,7,9)             63.6806         estimate D2E/DX2                !
 ! D88   D(19,6,7,3)           179.887          estimate D2E/DX2                !
 ! D89   D(19,6,7,8)            60.7666         estimate D2E/DX2                !
 ! D90   D(19,6,7,9)           -60.834          estimate D2E/DX2                !
 ! D91   D(3,7,8,20)            71.3419         estimate D2E/DX2                !
 ! D92   D(3,7,8,21)          -169.571          estimate D2E/DX2                !
 ! D93   D(3,7,8,22)           -49.4004         estimate D2E/DX2                !
 ! D94   D(6,7,8,20)           175.393          estimate D2E/DX2                !
 ! D95   D(6,7,8,21)           -65.52           estimate D2E/DX2                !
 ! D96   D(6,7,8,22)            54.6507         estimate D2E/DX2                !
 ! D97   D(9,7,8,20)           -58.6466         estimate D2E/DX2                !
 ! D98   D(9,7,8,21)            60.4405         estimate D2E/DX2                !
 ! D99   D(9,7,8,22)          -179.3889         estimate D2E/DX2                !
 ! D100  D(3,7,9,23)           170.7748         estimate D2E/DX2                !
 ! D101  D(3,7,9,24)           -70.1366         estimate D2E/DX2                !
 ! D102  D(3,7,9,25)            50.7871         estimate D2E/DX2                !
 ! D103  D(6,7,9,23)            66.7462         estimate D2E/DX2                !
 ! D104  D(6,7,9,24)          -174.1652         estimate D2E/DX2                !
 ! D105  D(6,7,9,25)           -53.2415         estimate D2E/DX2                !
 ! D106  D(8,7,9,23)           -59.3492         estimate D2E/DX2                !
 ! D107  D(8,7,9,24)            59.7393         estimate D2E/DX2                !
 ! D108  D(8,7,9,25)          -179.337          estimate D2E/DX2                !
 --------------------------------------------------------------------------------
 Trust Radius=3.00D-01 FncErr=1.00D-07 GrdErr=1.00D-06
 Number of steps in this run=    186 maximum allowed number of steps=    186.
 GradGradGradGradGradGradGradGradGradGradGradGradGradGradGradGradGradGrad

                          Input orientation:                          
 ---------------------------------------------------------------------
 Center     Atomic      Atomic             Coordinates (Angstroms)
 Number     Number       Type             X           Y           Z
 ---------------------------------------------------------------------
      1          6           0       -1.520800    1.655800   -0.104700
      2          6           0       -0.084300    1.782300   -0.647200
      3          6           0        0.519900    0.386600   -0.355500
      4          6           0        0.705700    0.225800    1.171600
      5          6           0       -0.733700    0.158200    1.707400
      6          6           0       -1.556800    0.195700    0.398600
      7          6           0       -0.677800   -0.565300   -0.624900
      8          6           0       -1.234100   -0.554100   -2.064500
      9          6           0       -0.453400   -2.051300   -0.272700
     10          1           0        1.313900   -0.667700    1.435700
     11          6           0        1.795400    0.109800   -1.150800
     12          7           0        1.388300    1.427500    1.754200
     13          1           0       -1.735200    2.388300    0.705700
     14          1           0       -2.280000    1.827300   -0.901400
     15          1           0       -0.082100    2.002000   -1.738500
     16          1           0        0.481500    2.615300   -0.177700
     17          1           0       -0.913000   -0.788700    2.265800
     18          1           0       -0.994500    0.991200    2.397100
     19          1           0       -2.587900   -0.203000    0.516000
     20          1           0       -0.522200   -1.042600   -2.767400
     21          1           0       -2.194400   -1.115800   -2.113600
     22          1           0       -1.445500    0.448100   -2.487300
     23          1           0       -1.411100   -2.615300   -0.342900
     24          1           0        0.266400   -2.521300   -0.979900
     25          1           0       -0.061300   -2.247000    0.745200
     26          1           0        2.190500   -0.908900   -0.940900
     27          1           0        1.614000    0.185400   -2.246000
     28          1           0        2.587900    0.845200   -0.885100
     29          1           0        1.579600    1.257400    2.767400
     30          1           0        2.289700    1.594700    1.252800
     31          1           0        0.773000    2.266300    1.659500
 ---------------------------------------------------------------------
                    Distance matrix (angstroms):
                    1          2          3          4          5
     1  C    0.000000
     2  C    1.540727   0.000000
     3  C    2.416242   1.548588   0.000000
     4  C    2.937881   2.520878   1.546743   0.000000
     5  C    2.479121   2.933183   2.424714   1.537376   0.000000
     6  C    1.544830   2.404008   2.217610   2.391096   1.546563
     7  C    2.431983   2.421563   1.553440   2.401525   2.442581
     8  C    2.967604   2.964717   2.623378   3.852715   3.871047
     9  C    3.861367   3.869493   2.626314   2.935081   2.980143
    10  H    3.975803   3.506556   2.224945   1.112654   2.224544
    11  C    3.805473   2.565958   1.528405   2.567965   3.816805
    12  N    3.459840   2.839217   2.507673   1.499816   2.473095
    13  H    1.113226   2.218794   3.196627   3.294156   2.641922
    14  H    1.113790   2.210824   3.195788   3.971969   3.461615
    15  H    2.204317   1.113197   2.210115   3.499171   3.962122
    16  H    2.221525   1.111058   2.236111   2.753286   3.326808
    17  H    3.458941   3.972701   3.210256   2.201516   1.113813
    18  H    2.641531   3.274457   3.199337   2.231226   1.112471
    19  H    2.231392   3.400362   3.281091   3.385481   2.233373
    20  H    3.920272   3.559082   2.990961   4.316515   4.637940
    21  H    3.488722   3.873220   3.565886   4.582904   4.284479
    22  H    2.672263   2.649325   2.900198   4.250250   4.264529
    23  H    4.279143   4.603464   3.569359   3.853103   3.514954
    24  H    4.626902   4.330664   2.984966   3.516887   3.924475
    25  H    4.252566   4.263164   2.912934   2.623899   2.676366
    26  H    4.588100   3.536033   2.193608   2.820431   4.086948
    27  H    4.071144   2.826743   2.193519   3.536472   4.598022
    28  H    4.259990   2.841726   2.183441   2.855932   4.269198
    29  H    4.245016   3.834524   3.410830   2.091525   2.771858
    30  H    4.045547   3.046485   2.679240   2.095122   3.378038
    31  H    2.957470   2.508004   2.767229   2.099099   2.591626
                    6          7          8          9         10
     6  C    0.000000
     7  C    1.548972   0.000000
     8  C    2.594840   1.543387   0.000000
     9  C    2.591745   1.543566   2.462041   0.000000
    10  H    3.172058   2.867652   4.330890   2.820697   0.000000
    11  C    3.693950   2.617069   3.233184   3.240141   2.743416
    12  N    3.468227   3.728289   5.038471   4.427441   2.120576
    13  H    2.221178   3.407689   4.072202   4.723381   4.378247
    14  H    2.207971   2.892755   2.849171   4.333044   4.960159
    15  H    3.163014   2.861117   2.822592   4.326162   4.376261
    16  H    3.215782   3.414701   4.067972   4.760275   3.751538
    17  H    2.206798   2.908844   4.348522   2.872172   2.379662
    18  H    2.223287   3.414012   4.727709   4.083801   3.000825
    19  H    1.111716   2.254195   2.935136   2.931612   4.035572
    20  H    3.553497   2.200530   1.113329   2.691791   4.601941
    21  H    2.904774   2.195303   1.113595   2.700954   5.010638
    22  H    2.899054   2.254967   1.108086   3.483635   4.924350
    23  H    2.910803   2.195394   2.691427   1.113649   3.792386
    24  H    3.550551   2.200790   2.701432   1.113168   3.219971
    25  H    2.885036   2.255075   3.483645   1.108224   2.205029
    26  H    4.129971   2.906039   3.621636   2.956649   2.544569
    27  H    4.128921   2.905833   2.948131   3.629171   3.791142
    28  H    4.387285   3.566793   4.237536   4.244320   3.049271
    29  H    4.071293   4.463831   5.877559   4.931814   2.355850
    30  H    4.181198   4.122792   5.295185   4.810932   2.470646
    31  H    3.362324   3.916792   5.084416   4.886627   2.991825
                   11         12         13         14         15
    11  C    0.000000
    12  N    3.215756   0.000000
    13  H    4.593832   3.432017   0.000000
    14  H    4.429548   4.546260   1.787260   0.000000
    15  H    2.729619   3.832894   2.975917   2.358394   0.000000
    16  H    2.991787   2.442415   2.397016   2.961514   1.769146
    17  H    4.451504   3.235623   3.633628   4.329353   4.951042
    18  H    4.598696   2.506275   2.315461   3.637537   4.354007
    19  H    4.699935   4.472341   2.734578   2.495184   4.027881
    20  H    3.051670   5.495113   5.030394   3.848135   3.243750
    21  H    4.283408   5.853545   4.520844   3.184116   3.784599
    22  H    3.521947   5.194225   3.747473   2.261341   2.198674
    23  H    4.284917   5.345905   5.122559   4.561097   5.003339
    24  H    3.047907   4.932239   5.563436   5.039904   4.599692
    25  H    3.549177   4.076932   4.928439   4.922788   4.921707
    26  H    1.112615   3.655934   5.384602   5.241538   3.778123
    27  H    1.112692   4.194682   4.978197   4.434751   2.536601
    28  H    1.113313   2.957029   4.858086   4.966008   3.032388
    29  H    4.088502   1.045038   4.064165   5.355501   4.859919
    30  H    2.868197   1.044931   4.138712   5.057355   3.839167
    31  H    3.686947   1.044580   2.686203   4.008957   3.513894
                   16         17         18         19         20
    16  H    0.000000
    17  H    4.416168   0.000000
    18  H    3.383175   1.786596   0.000000
    19  H    4.224364   2.492014   2.739265   0.000000
    20  H    4.592841   5.054730   5.570590   3.968975   0.000000
    21  H    4.982896   4.574727   5.121096   2.811199   1.796960
    22  H    3.707336   4.940161   4.935152   3.278539   1.775704
    23  H    5.564926   3.223335   4.548406   2.818113   3.023529
    24  H    5.203312   3.863607   5.033056   3.969793   2.450224
    25  H    4.978789   2.272500   3.753075   3.257940   3.741840
    26  H    3.990381   4.464200   4.989674   5.045192   3.273029
    27  H    3.385976   5.262218   5.386275   5.043358   2.518570
    28  H    2.840878   4.985389   4.860838   5.463580   4.096287
    29  H    3.423935   3.263615   2.614187   4.956776   6.351502
    30  H    2.521417   4.118744   3.529816   5.250293   5.569932
    31  H    1.892638   3.541641   2.300867   4.324429   5.676602
                   21         22         23         24         25
    21  H    0.000000
    22  H    1.773777   0.000000
    23  H    2.448967   3.739526   0.000000
    24  H    3.052252   3.744355   1.796834   0.000000
    25  H    3.741987   4.430421   1.772446   1.777244   0.000000
    26  H    4.543719   4.177714   4.030003   2.510680   3.115132
    27  H    4.026731   3.080224   4.540588   3.277996   4.203627
    28  H    5.312732   4.358102   5.316112   4.090437   4.386096
    29  H    6.610546   6.117031   5.797936   5.481362   4.366081
    30  H    6.227890   5.408767   5.828060   5.100995   4.532496
    31  H    5.871997   5.042176   5.710509   5.490372   4.679944
                   26         27         28         29         30
    26  H    0.000000
    27  H    1.798091   0.000000
    28  H    1.799419   1.798851   0.000000
    29  H    4.337919   5.126846   3.811474   0.000000
    30  H    3.330191   3.832010   2.285014   1.706466   0.000000
    31  H    4.342037   4.504482   3.433421   1.701742   1.707873
                   31
    31  H    0.000000
 Stoichiometry    C10H20N(1+)
 Framework group  C1[X(C10H20N)]
 Deg. of freedom    87
 Full point group                 C1      NOp   1
 Largest Abelian subgroup         C1      NOp   1
 Largest concise Abelian subgroup C1      NOp   1
                         Standard orientation:                         
 ---------------------------------------------------------------------
 Center     Atomic      Atomic             Coordinates (Angstroms)
 Number     Number       Type             X           Y           Z
 ---------------------------------------------------------------------
      1          6           0       -0.039266   -1.633024   -1.115972
      2          6           0       -0.417894   -0.214694   -1.583756
      3          6           0       -0.142166    0.648885   -0.328236
      4          6           0       -1.194254    0.315139    0.755340
      5          6           0       -0.841870   -1.121771    1.173239
      6          6           0        0.430378   -1.388218    0.335236
      7          6           0        1.133866   -0.010052    0.263980
      8          6           0        2.383736    0.013278   -0.641184
      9          6           0        1.597937    0.526055    1.635047
     10          1           0       -1.176289    1.034979    1.603577
     11          6           0       -0.049392    2.142448   -0.639177
     12          7           0       -2.577799    0.330584    0.176539
     13          1           0       -0.896390   -2.341347   -1.169710
     14          1           0        0.776559   -2.068795   -1.736505
     15          1           0        0.212418    0.109731   -2.442046
     16          1           0       -1.466207   -0.146053   -1.945388
     17          1           0       -0.622931   -1.183348    2.263584
     18          1           0       -1.648809   -1.859081    0.966324
     19          1           0        1.058010   -2.212411    0.738592
     20          1           0        2.796722    1.044266   -0.718697
     21          1           0        3.181593   -0.637946   -0.217598
     22          1           0        2.226908   -0.334690   -1.681462
     23          1           0        2.410349   -0.114598    2.047072
     24          1           0        2.000003    1.559744    1.540312
     25          1           0        0.817560    0.567227    2.420844
     26          1           0        0.175752    2.733473    0.276198
     27          1           0        0.749775    2.351885   -1.384531
     28          1           0       -1.011713    2.514081   -1.057857
     29          1           0       -3.273475    0.188823    0.943378
     30          1           0       -2.752582    1.250814   -0.286610
     31          1           0       -2.679119   -0.439115   -0.522350
 ---------------------------------------------------------------------
 Rotational constants (GHZ):      1.4801036      1.0849226      1.0289355
 Standard basis: 6-311++G(d,p) (5D, 7F)
 There are   393 symmetry adapted cartesian basis functions of A   symmetry.
 There are   382 symmetry adapted basis functions of A   symmetry.
   382 basis functions,   576 primitive gaussians,   393 cartesian basis functions
    43 alpha electrons       43 beta electrons
       nuclear repulsion energy       730.1822020081 Hartrees.
 NAtoms=   31 NActive=   31 NUniq=   31 SFac= 1.00D+00 NAtFMM=   60 NAOKFM=F Big=F
 Integral buffers will be    131072 words long.
 Raffenetti 2 integral format.
 Two-electron integral symmetry is turned on.
 One-electron integrals computed using PRISM.
 NBasis=   382 RedAO= T EigKep=  1.59D-06  NBF=   382
 NBsUse=   382 1.00D-06 EigRej= -1.00D+00 NBFU=   382
 ExpMin= 3.60D-02 ExpMax= 6.29D+03 ExpMxC= 9.49D+02 IAcc=3 IRadAn=         5 AccDes= 0.00D+00
 Harris functional with IExCor=  402 and IRadAn=       5 diagonalized for initial guess.
 HarFok:  IExCor=  402 AccDes= 0.00D+00 IRadAn=         5 IDoV= 1 UseB2=F ITyADJ=14
 ICtDFT=  3500011 ScaDFX=  1.000000  1.000000  1.000000  1.000000
 FoFCou: FMM=F IPFlag=           0 FMFlag=      100000 FMFlg1=           0
         NFxFlg=           0 DoJE=T BraDBF=F KetDBF=T FulRan=T
         wScrn=  0.000000 ICntrl=     500 IOpCl=  0 I1Cent=   200000004 NGrid=           0
         NMat0=    1 NMatS0=      1 NMatT0=    0 NMatD0=    1 NMtDS0=    0 NMtDT0=    0
 Petite list used in FoFCou.
 Keep R1 ints in memory in canonical form, NReq=2706791301.
 Requested convergence on RMS density matrix=1.00D-08 within 128 cycles.
 Requested convergence on MAX density matrix=1.00D-06.
 Requested convergence on             energy=1.00D-06.
 No special actions if energy rises.
 SCF Done:  E(RB3LYP) =  -447.738145968     A.U. after   13 cycles
            NFock= 13  Conv=0.88D-08     -V/T= 2.0058

 **********************************************************************

            Population analysis using the SCF density.

 **********************************************************************

 Orbital symmetries:
       Occupied  (A) (A) (A) (A) (A) (A) (A) (A) (A) (A) (A) (A)
                 (A) (A) (A) (A) (A) (A) (A) (A) (A) (A) (A) (A)
                 (A) (A) (A) (A) (A) (A) (A) (A) (A) (A) (A) (A)
                 (A) (A) (A) (A) (A) (A) (A)
       Virtual   (A) (A) (A) (A) (A) (A) (A) (A) (A) (A) (A) (A)
                 (A) (A) (A) (A) (A) (A) (A) (A) (A) (A) (A) (A)
                 (A) (A) (A) (A) (A) (A) (A) (A) (A) (A) (A) (A)
                 (A) (A) (A) (A) (A) (A) (A) (A) (A) (A) (A) (A)
                 (A) (A) (A) (A) (A) (A) (A) (A) (A) (A) (A) (A)
                 (A) (A) (A) (A) (A) (A) (A) (A) (A) (A) (A) (A)
                 (A) (A) (A) (A) (A) (A) (A) (A) (A) (A) (A) (A)
                 (A) (A) (A) (A) (A) (A) (A) (A) (A) (A) (A) (A)
                 (A) (A) (A) (A) (A) (A) (A) (A) (A) (A) (A) (A)
                 (A) (A) (A) (A) (A) (A) (A) (A) (A) (A) (A) (A)
                 (A) (A) (A) (A) (A) (A) (A) (A) (A) (A) (A) (A)
                 (A) (A) (A) (A) (A) (A) (A) (A) (A) (A) (A) (A)
                 (A) (A) (A) (A) (A) (A) (A) (A) (A) (A) (A) (A)
                 (A) (A) (A) (A) (A) (A) (A) (A) (A) (A) (A) (A)
                 (A) (A) (A) (A) (A) (A) (A) (A) (A) (A) (A) (A)
                 (A) (A) (A) (A) (A) (A) (A) (A) (A) (A) (A) (A)
                 (A) (A) (A) (A) (A) (A) (A) (A) (A) (A) (A) (A)
                 (A) (A) (A) (A) (A) (A) (A) (A) (A) (A) (A) (A)
                 (A) (A) (A) (A) (A) (A) (A) (A) (A) (A) (A) (A)
                 (A) (A) (A) (A) (A) (A) (A) (A) (A) (A) (A) (A)
                 (A) (A) (A) (A) (A) (A) (A) (A) (A) (A) (A) (A)
                 (A) (A) (A) (A) (A) (A) (A) (A) (A) (A) (A) (A)
                 (A) (A) (A) (A) (A) (A) (A) (A) (A) (A) (A) (A)
                 (A) (A) (A) (A) (A) (A) (A) (A) (A) (A) (A) (A)
                 (A) (A) (A) (A) (A) (A) (A) (A) (A) (A) (A) (A)
                 (A) (A) (A) (A) (A) (A) (A) (A) (A) (A) (A) (A)
                 (A) (A) (A) (A) (A) (A) (A) (A) (A) (A) (A) (A)
                 (A) (A) (A) (A) (A) (A) (A) (A) (A) (A) (A) (A)
                 (A) (A) (A)
 The electronic state is 1-A.
 Alpha  occ. eigenvalues --  -14.62195 -10.39902 -10.33841 -10.33052 -10.32074
 Alpha  occ. eigenvalues --  -10.31855 -10.31222 -10.30661 -10.30413 -10.28935
 Alpha  occ. eigenvalues --  -10.28417  -1.18558  -1.03611  -0.91462  -0.90614
 Alpha  occ. eigenvalues --   -0.89745  -0.82042  -0.80181  -0.78851  -0.78352
 Alpha  occ. eigenvalues --   -0.76296  -0.74860  -0.69449  -0.66032  -0.65394
 Alpha  occ. eigenvalues --   -0.62581  -0.61322  -0.57896  -0.56977  -0.55631
 Alpha  occ. eigenvalues --   -0.55202  -0.53490  -0.52773  -0.52118  -0.50131
 Alpha  occ. eigenvalues --   -0.49776  -0.49011  -0.47835  -0.47024  -0.46355
 Alpha  occ. eigenvalues --   -0.45659  -0.44459  -0.43250
 Alpha virt. eigenvalues --   -0.18540  -0.14121  -0.13386  -0.11859  -0.10268
 Alpha virt. eigenvalues --   -0.09612  -0.09073  -0.08669  -0.08566  -0.07523
 Alpha virt. eigenvalues --   -0.06848  -0.06277  -0.05816  -0.05270  -0.04756
 Alpha virt. eigenvalues --   -0.04716  -0.04429  -0.04001  -0.03605  -0.03016
 Alpha virt. eigenvalues --   -0.02239  -0.01681  -0.01502  -0.00882  -0.00409
 Alpha virt. eigenvalues --   -0.00005   0.00061   0.00214   0.00644   0.01196
 Alpha virt. eigenvalues --    0.01248   0.01735   0.01923   0.02070   0.02269
 Alpha virt. eigenvalues --    0.02439   0.03093   0.03455   0.03623   0.04164
 Alpha virt. eigenvalues --    0.04533   0.04754   0.05117   0.05357   0.05412
 Alpha virt. eigenvalues --    0.05562   0.05931   0.06169   0.06510   0.07122
 Alpha virt. eigenvalues --    0.07446   0.07674   0.07966   0.08200   0.08498
 Alpha virt. eigenvalues --    0.08886   0.09514   0.09949   0.10119   0.10446
 Alpha virt. eigenvalues --    0.10596   0.10901   0.11268   0.12180   0.12387
 Alpha virt. eigenvalues --    0.12571   0.13135   0.13421   0.13656   0.14519
 Alpha virt. eigenvalues --    0.14644   0.15354   0.15702   0.16595   0.16816
 Alpha virt. eigenvalues --    0.17547   0.17699   0.18551   0.18939   0.19535
 Alpha virt. eigenvalues --    0.20340   0.20757   0.21471   0.21873   0.22410
 Alpha virt. eigenvalues --    0.22730   0.23107   0.23376   0.24305   0.24673
 Alpha virt. eigenvalues --    0.25153   0.26633   0.27427   0.29426   0.30089
 Alpha virt. eigenvalues --    0.30533   0.34323   0.34853   0.36381   0.37383
 Alpha virt. eigenvalues --    0.38369   0.38868   0.39381   0.40785   0.41490
 Alpha virt. eigenvalues --    0.43234   0.44357   0.45792   0.45882   0.47085
 Alpha virt. eigenvalues --    0.47919   0.48255   0.49143   0.50168   0.50638
 Alpha virt. eigenvalues --    0.51079   0.51817   0.52549   0.52997   0.53953
 Alpha virt. eigenvalues --    0.54743   0.54827   0.55776   0.56639   0.56736
 Alpha virt. eigenvalues --    0.57211   0.58350   0.59218   0.59756   0.60094
 Alpha virt. eigenvalues --    0.60631   0.61000   0.61528   0.62610   0.63292
 Alpha virt. eigenvalues --    0.63739   0.64283   0.64720   0.65395   0.66831
 Alpha virt. eigenvalues --    0.67682   0.68092   0.68532   0.69824   0.71878
 Alpha virt. eigenvalues --    0.72215   0.74074   0.77660   0.78893   0.81125
 Alpha virt. eigenvalues --    0.82279   0.86418   0.88768   0.89287   0.92936
 Alpha virt. eigenvalues --    0.94964   0.95694   0.98793   1.01246   1.03798
 Alpha virt. eigenvalues --    1.06630   1.08736   1.10748   1.11071   1.13271
 Alpha virt. eigenvalues --    1.14225   1.17575   1.22719   1.23416   1.24801
 Alpha virt. eigenvalues --    1.26755   1.28776   1.30933   1.31585   1.32973
 Alpha virt. eigenvalues --    1.33453   1.34069   1.36383   1.37413   1.37963
 Alpha virt. eigenvalues --    1.40455   1.43054   1.43688   1.44232   1.45707
 Alpha virt. eigenvalues --    1.46004   1.46511   1.47183   1.48217   1.48846
 Alpha virt. eigenvalues --    1.49340   1.51027   1.52569   1.53086   1.53626
 Alpha virt. eigenvalues --    1.53874   1.55604   1.56727   1.56750   1.58349
 Alpha virt. eigenvalues --    1.59170   1.59694   1.60659   1.61284   1.62275
 Alpha virt. eigenvalues --    1.63732   1.66130   1.67279   1.68034   1.69482
 Alpha virt. eigenvalues --    1.70456   1.70806   1.71953   1.73366   1.74222
 Alpha virt. eigenvalues --    1.75074   1.76601   1.77148   1.79803   1.80448
 Alpha virt. eigenvalues --    1.82155   1.85275   1.85798   1.87194   1.88153
 Alpha virt. eigenvalues --    1.89498   1.91538   1.93639   1.95097   1.97070
 Alpha virt. eigenvalues --    1.99772   2.00149   2.00685   2.02438   2.04487
 Alpha virt. eigenvalues --    2.05928   2.06690   2.07319   2.09544   2.14170
 Alpha virt. eigenvalues --    2.15069   2.17155   2.18104   2.19428   2.20747
 Alpha virt. eigenvalues --    2.22427   2.24620   2.27741   2.29188   2.30606
 Alpha virt. eigenvalues --    2.32857   2.33033   2.34135   2.35705   2.36369
 Alpha virt. eigenvalues --    2.37460   2.39200   2.39709   2.40135   2.42424
 Alpha virt. eigenvalues --    2.43608   2.43959   2.44799   2.47309   2.48403
 Alpha virt. eigenvalues --    2.49346   2.51253   2.52415   2.55161   2.55762
 Alpha virt. eigenvalues --    2.56512   2.58746   2.60667   2.62140   2.63809
 Alpha virt. eigenvalues --    2.65574   2.66788   2.67739   2.70427   2.72194
 Alpha virt. eigenvalues --    2.73794   2.75489   2.77385   2.78619   2.81360
 Alpha virt. eigenvalues --    2.83260   2.84022   2.86551   2.87857   2.88679
 Alpha virt. eigenvalues --    2.90280   2.93615   2.94824   2.97197   3.02267
 Alpha virt. eigenvalues --    3.04253   3.04832   3.06077   3.09847   3.12283
 Alpha virt. eigenvalues --    3.14178   3.19606   3.20209   3.32151   3.38715
 Alpha virt. eigenvalues --    3.39669   3.48007   3.60183   3.63421   3.63584
 Alpha virt. eigenvalues --    3.63905   3.65058   3.66428   3.67354   3.69104
 Alpha virt. eigenvalues --    3.78905   3.89217   3.98166   4.01198   4.03944
 Alpha virt. eigenvalues --    4.09617   4.14283   4.17559   4.25939   4.32967
 Alpha virt. eigenvalues --    4.41725   4.43968   4.59812  23.64634  23.67226
 Alpha virt. eigenvalues --   23.72449  23.76380  23.79906  23.82663  23.83447
 Alpha virt. eigenvalues --   23.84082  23.85715  23.94711  35.33115
          Condensed to atoms (all electrons):
               1          2          3          4          5          6
     1  C    6.617749  -1.276025   0.934913  -0.312724   0.314082  -1.790725
     2  C   -1.276025   8.600113  -1.193853   0.110651  -0.123045   2.458319
     3  C    0.934913  -1.193853  18.688620  -8.184081   2.223184  -2.417047
     4  C   -0.312724   0.110651  -8.184081  17.173288  -3.531626   2.339066
     5  C    0.314082  -0.123045   2.223184  -3.531626   7.835198  -2.175979
     6  C   -1.790725   2.458319  -2.417047   2.339066  -2.175979  13.696866
     7  C    0.880271  -1.238736  -4.101910   1.521211   0.594091  -3.578671
     8  C    0.058901  -0.096004   0.729558  -0.872250   0.282519  -0.530398
     9  C    0.094737  -0.263817  -0.133918   0.401222  -0.182999  -0.312721
    10  H   -0.023280   0.053701  -0.220940   0.765147  -0.212234   0.209058
    11  C    0.352957  -1.349418  -0.824625  -1.866941   0.621689  -2.427885
    12  N    0.013204   0.073547   0.113406  -0.512038   0.185083  -0.091495
    13  H    0.387170   0.021337   0.008612   0.034401  -0.043361   0.014141
    14  H    0.532521  -0.101372  -0.014759   0.030156  -0.001387  -0.207037
    15  H   -0.114594   0.631290  -0.125667   0.039766  -0.015853   0.178801
    16  H    0.037489   0.229616   0.023937  -0.161979   0.057993  -0.151283
    17  H    0.001637   0.004371   0.016668  -0.097386   0.555324  -0.180301
    18  H   -0.089271   0.086463  -0.149957   0.100195   0.366664   0.099890
    19  H   -0.057366   0.073023  -0.064049   0.048062  -0.070708   0.562134
    20  H   -0.021014   0.058707   0.012373  -0.016519  -0.002107   0.131566
    21  H    0.014869  -0.014241   0.091107  -0.028651   0.011795  -0.078811
    22  H    0.023976  -0.016238  -0.042365   0.001011   0.001162  -0.102701
    23  H    0.013642  -0.015674   0.016113   0.026048  -0.009679  -0.060693
    24  H   -0.004436   0.016124  -0.000833   0.053420  -0.025345   0.121706
    25  H    0.004363  -0.022876   0.004110  -0.070665   0.057411  -0.123755
    26  H   -0.011242   0.065450   0.002114  -0.224844   0.052442  -0.031500
    27  H    0.014880  -0.079293  -0.194236   0.144467  -0.017239  -0.024057
    28  H    0.023422  -0.146897   0.102004  -0.024205   0.004425  -0.069327
    29  H    0.010641  -0.036582   0.040421  -0.038781   0.017060  -0.050482
    30  H   -0.019130   0.058043   0.022013   0.010501  -0.001620   0.050197
    31  H    0.032174  -0.011330   0.028704  -0.094757   0.001615  -0.005976
               7          8          9         10         11         12
     1  C    0.880271   0.058901   0.094737  -0.023280   0.352957   0.013204
     2  C   -1.238736  -0.096004  -0.263817   0.053701  -1.349418   0.073547
     3  C   -4.101910   0.729558  -0.133918  -0.220940  -0.824625   0.113406
     4  C    1.521211  -0.872250   0.401222   0.765147  -1.866941  -0.512038
     5  C    0.594091   0.282519  -0.182999  -0.212234   0.621689   0.185083
     6  C   -3.578671  -0.530398  -0.312721   0.209058  -2.427885  -0.091495
     7  C   12.359887  -0.438402   0.104322  -0.065992   0.298713   0.137505
     8  C   -0.438402   6.003993  -0.361890  -0.030990   0.524130   0.027240
     9  C    0.104322  -0.361890   5.777259   0.012686   0.254578  -0.035316
    10  H   -0.065992  -0.030990   0.012686   0.419074  -0.160209  -0.033358
    11  C    0.298713   0.524130   0.254578  -0.160209   9.480863  -0.005075
    12  N    0.137505   0.027240  -0.035316  -0.033358  -0.005075   6.297816
    13  H   -0.072940  -0.020314   0.003211   0.000386   0.002616  -0.012912
    14  H    0.136590  -0.046681   0.019980   0.000465   0.006576   0.001025
    15  H   -0.002037  -0.049253  -0.008241   0.001850  -0.205325   0.007678
    16  H    0.101394  -0.006679   0.014386  -0.008850   0.129392   0.062894
    17  H    0.057883   0.018609  -0.033330  -0.016608   0.036419  -0.003852
    18  H   -0.055061  -0.009706  -0.018217   0.013149  -0.042233   0.011008
    19  H   -0.083481  -0.016634  -0.015741   0.005678  -0.068289  -0.000840
    20  H   -0.060901   0.385295  -0.035285   0.000608  -0.101153   0.001944
    21  H   -0.076711   0.458956  -0.021700  -0.001333   0.001203   0.001254
    22  H    0.066500   0.369840   0.020369   0.000344   0.062959  -0.003991
    23  H   -0.014609  -0.041375   0.452907  -0.001523  -0.003713  -0.000793
    24  H   -0.057825  -0.050417   0.399078   0.006335  -0.094397  -0.001894
    25  H    0.107148   0.054901   0.302078  -0.005327   0.046799   0.005753
    26  H   -0.124475   0.025031  -0.005951  -0.011376   0.613626   0.002932
    27  H    0.017027  -0.012286   0.012034   0.004207   0.512718  -0.007869
    28  H    0.128722   0.001374   0.004405  -0.009152   0.317033  -0.000393
    29  H    0.025060   0.001149   0.002934  -0.010180   0.038927   0.327735
    30  H   -0.015504  -0.001741  -0.008478   0.010958  -0.103767   0.323053
    31  H    0.001427   0.006321  -0.002858  -0.003944   0.006412   0.377694
              13         14         15         16         17         18
     1  C    0.387170   0.532521  -0.114594   0.037489   0.001637  -0.089271
     2  C    0.021337  -0.101372   0.631290   0.229616   0.004371   0.086463
     3  C    0.008612  -0.014759  -0.125667   0.023937   0.016668  -0.149957
     4  C    0.034401   0.030156   0.039766  -0.161979  -0.097386   0.100195
     5  C   -0.043361  -0.001387  -0.015853   0.057993   0.555324   0.366664
     6  C    0.014141  -0.207037   0.178801  -0.151283  -0.180301   0.099890
     7  C   -0.072940   0.136590  -0.002037   0.101394   0.057883  -0.055061
     8  C   -0.020314  -0.046681  -0.049253  -0.006679   0.018609  -0.009706
     9  C    0.003211   0.019980  -0.008241   0.014386  -0.033330  -0.018217
    10  H    0.000386   0.000465   0.001850  -0.008850  -0.016608   0.013149
    11  C    0.002616   0.006576  -0.205325   0.129392   0.036419  -0.042233
    12  N   -0.012912   0.001025   0.007678   0.062894  -0.003852   0.011008
    13  H    0.519114   0.011387   0.001467  -0.005587  -0.000199   0.009377
    14  H    0.011387   0.465848  -0.004544   0.002534  -0.001408  -0.003686
    15  H    0.001467  -0.004544   0.442102  -0.001592  -0.001476   0.001224
    16  H   -0.005587   0.002534  -0.001592   0.580197   0.000858  -0.002947
    17  H   -0.000199  -0.001408  -0.001476   0.000858   0.452711   0.006431
    18  H    0.009377  -0.003686   0.001224  -0.002947   0.006431   0.522825
    19  H   -0.007799  -0.009344   0.005099  -0.003959  -0.009514  -0.002335
    20  H    0.000338  -0.002756   0.007187  -0.001898   0.000406   0.000581
    21  H    0.000059   0.000422  -0.000660  -0.000530   0.000143  -0.000486
    22  H   -0.002928  -0.005787  -0.009579   0.001451   0.000818  -0.000021
    23  H   -0.000054   0.001243   0.000014   0.000332   0.000354   0.000113
    24  H    0.000769   0.001000   0.001502  -0.000178  -0.002851   0.000862
    25  H   -0.000814  -0.000445   0.000231  -0.000336  -0.006459  -0.005684
    26  H    0.000360  -0.000804  -0.002597   0.003002   0.002156  -0.000337
    27  H    0.000386   0.000367  -0.008561   0.003637   0.000293   0.000382
    28  H   -0.002011   0.001422   0.000907  -0.001686  -0.000651  -0.002425
    29  H   -0.000623   0.000245  -0.000575   0.007605   0.000567  -0.002672
    30  H    0.000852  -0.000327   0.002251  -0.011039  -0.000237   0.007353
    31  H   -0.003370   0.000747   0.001697  -0.006394  -0.000723  -0.013908
              19         20         21         22         23         24
     1  C   -0.057366  -0.021014   0.014869   0.023976   0.013642  -0.004436
     2  C    0.073023   0.058707  -0.014241  -0.016238  -0.015674   0.016124
     3  C   -0.064049   0.012373   0.091107  -0.042365   0.016113  -0.000833
     4  C    0.048062  -0.016519  -0.028651   0.001011   0.026048   0.053420
     5  C   -0.070708  -0.002107   0.011795   0.001162  -0.009679  -0.025345
     6  C    0.562134   0.131566  -0.078811  -0.102701  -0.060693   0.121706
     7  C   -0.083481  -0.060901  -0.076711   0.066500  -0.014609  -0.057825
     8  C   -0.016634   0.385295   0.458956   0.369840  -0.041375  -0.050417
     9  C   -0.015741  -0.035285  -0.021700   0.020369   0.452907   0.399078
    10  H    0.005678   0.000608  -0.001333   0.000344  -0.001523   0.006335
    11  C   -0.068289  -0.101153   0.001203   0.062959  -0.003713  -0.094397
    12  N   -0.000840   0.001944   0.001254  -0.003991  -0.000793  -0.001894
    13  H   -0.007799   0.000338   0.000059  -0.002928  -0.000054   0.000769
    14  H   -0.009344  -0.002756   0.000422  -0.005787   0.001243   0.001000
    15  H    0.005099   0.007187  -0.000660  -0.009579   0.000014   0.001502
    16  H   -0.003959  -0.001898  -0.000530   0.001451   0.000332  -0.000178
    17  H   -0.009514   0.000406   0.000143   0.000818   0.000354  -0.002851
    18  H   -0.002335   0.000581  -0.000486  -0.000021   0.000113   0.000862
    19  H    0.426375   0.004575  -0.000396  -0.003082  -0.001484   0.004132
    20  H    0.004575   0.528943  -0.017471  -0.040269  -0.001923   0.001884
    21  H   -0.000396  -0.017471   0.496788  -0.024932   0.003211  -0.001520
    22  H   -0.003082  -0.040269  -0.024932   0.542903  -0.000553  -0.000944
    23  H   -0.001484  -0.001923   0.003211  -0.000553   0.482319  -0.015474
    24  H    0.004132   0.001884  -0.001520  -0.000944  -0.015474   0.521397
    25  H   -0.003159   0.001419   0.002347  -0.003465  -0.021409  -0.042341
    26  H   -0.001039   0.002275  -0.000253   0.000353  -0.002097  -0.007260
    27  H   -0.001284  -0.007194  -0.001328   0.006133   0.000296   0.002482
    28  H   -0.000680  -0.002590   0.000439  -0.001620   0.000447  -0.001557
    29  H   -0.001380  -0.000048   0.000033  -0.000151   0.000142  -0.000336
    30  H    0.000509   0.000494   0.000027  -0.000118   0.000036   0.000214
    31  H    0.000942   0.000078   0.000171  -0.000507  -0.000176  -0.000242
              25         26         27         28         29         30
     1  C    0.004363  -0.011242   0.014880   0.023422   0.010641  -0.019130
     2  C   -0.022876   0.065450  -0.079293  -0.146897  -0.036582   0.058043
     3  C    0.004110   0.002114  -0.194236   0.102004   0.040421   0.022013
     4  C   -0.070665  -0.224844   0.144467  -0.024205  -0.038781   0.010501
     5  C    0.057411   0.052442  -0.017239   0.004425   0.017060  -0.001620
     6  C   -0.123755  -0.031500  -0.024057  -0.069327  -0.050482   0.050197
     7  C    0.107148  -0.124475   0.017027   0.128722   0.025060  -0.015504
     8  C    0.054901   0.025031  -0.012286   0.001374   0.001149  -0.001741
     9  C    0.302078  -0.005951   0.012034   0.004405   0.002934  -0.008478
    10  H   -0.005327  -0.011376   0.004207  -0.009152  -0.010180   0.010958
    11  C    0.046799   0.613626   0.512718   0.317033   0.038927  -0.103767
    12  N    0.005753   0.002932  -0.007869  -0.000393   0.327735   0.323053
    13  H   -0.000814   0.000360   0.000386  -0.002011  -0.000623   0.000852
    14  H   -0.000445  -0.000804   0.000367   0.001422   0.000245  -0.000327
    15  H    0.000231  -0.002597  -0.008561   0.000907  -0.000575   0.002251
    16  H   -0.000336   0.003002   0.003637  -0.001686   0.007605  -0.011039
    17  H   -0.006459   0.002156   0.000293  -0.000651   0.000567  -0.000237
    18  H   -0.005684  -0.000337   0.000382  -0.002425  -0.002672   0.007353
    19  H   -0.003159  -0.001039  -0.001284  -0.000680  -0.001380   0.000509
    20  H    0.001419   0.002275  -0.007194  -0.002590  -0.000048   0.000494
    21  H    0.002347  -0.000253  -0.001328   0.000439   0.000033   0.000027
    22  H   -0.003465   0.000353   0.006133  -0.001620  -0.000151  -0.000118
    23  H   -0.021409  -0.002097   0.000296   0.000447   0.000142   0.000036
    24  H   -0.042341  -0.007260   0.002482  -0.001557  -0.000336   0.000214
    25  H    0.573424   0.006048  -0.002952   0.001313   0.001441  -0.001134
    26  H    0.006048   0.528855  -0.016382  -0.046139  -0.000068  -0.000272
    27  H   -0.002952  -0.016382   0.486372  -0.024733   0.000383  -0.001785
    28  H    0.001313  -0.046139  -0.024733   0.622846   0.001766   0.000579
    29  H    0.001441  -0.000068   0.000383   0.001766   0.356187  -0.019365
    30  H   -0.001134  -0.000272  -0.001785   0.000579  -0.019365   0.374315
    31  H    0.001757  -0.000328  -0.001712   0.005491  -0.015805  -0.019860
              31
     1  C    0.032174
     2  C   -0.011330
     3  C    0.028704
     4  C   -0.094757
     5  C    0.001615
     6  C   -0.005976
     7  C    0.001427
     8  C    0.006321
     9  C   -0.002858
    10  H   -0.003944
    11  C    0.006412
    12  N    0.377694
    13  H   -0.003370
    14  H    0.000747
    15  H    0.001697
    16  H   -0.006394
    17  H   -0.000723
    18  H   -0.013908
    19  H    0.000942
    20  H    0.000078
    21  H    0.000171
    22  H   -0.000507
    23  H   -0.000176
    24  H   -0.000242
    25  H    0.001757
    26  H   -0.000328
    27  H   -0.001712
    28  H    0.005491
    29  H   -0.015805
    30  H   -0.019860
    31  H    0.352358
 Mulliken charges:
               1
     1  C   -0.643789
     2  C   -0.555352
     3  C    0.610385
     4  C   -0.761165
     5  C   -0.768556
     6  C    0.549097
     7  C   -0.550497
     8  C   -0.362797
     9  C   -0.435724
    10  H    0.311650
    11  C   -0.054578
    12  N   -0.260943
    13  H    0.156930
    14  H    0.187811
    15  H    0.227487
    16  H    0.108221
    17  H    0.199349
    18  H    0.172430
    19  H    0.292035
    20  H    0.172455
    21  H    0.186200
    22  H    0.161432
    23  H    0.194014
    24  H    0.176946
    25  H    0.140280
    26  H    0.182322
    27  H    0.194846
    28  H    0.117473
    29  H    0.344752
    30  H    0.342983
    31  H    0.364302
 Sum of Mulliken charges =   1.00000
 Mulliken charges with hydrogens summed into heavy atoms:
               1
     1  C   -0.299048
     2  C   -0.219643
     3  C    0.610385
     4  C   -0.449515
     5  C   -0.396778
     6  C    0.841133
     7  C   -0.550497
     8  C    0.157290
     9  C    0.075516
    11  C    0.440063
    12  N    0.791095
 Electronic spatial extent (au):  <R**2>=           1564.3130
 Charge=              1.0000 electrons
 Dipole moment (field-independent basis, Debye):
    X=             -7.5564    Y=              0.9502    Z=              0.7389  Tot=              7.6516
 Quadrupole moment (field-independent basis, Debye-Ang):
   XX=            -38.1670   YY=            -63.7385   ZZ=            -63.4515
   XY=             -2.9603   XZ=             -2.4323   YZ=              0.1190
 Traceless Quadrupole moment (field-independent basis, Debye-Ang):
   XX=             16.9520   YY=             -8.6195   ZZ=             -8.3324
   XY=             -2.9603   XZ=             -2.4323   YZ=              0.1190
 Octapole moment (field-independent basis, Debye-Ang**2):
  XXX=            -86.3012  YYY=              3.5469  ZZZ=              3.6596  XYY=             -7.5161
  XXY=              8.0229  XXZ=              7.7193  XZZ=             -6.7350  YZZ=              0.1334
  YYZ=              0.0326  XYZ=             -1.2782
 Hexadecapole moment (field-independent basis, Debye-Ang**3):
 XXXX=           -649.0160 YYYY=           -613.8739 ZZZZ=           -538.5751 XXXY=            -34.8848
 XXXZ=            -24.5054 YYYX=             -6.3809 YYYZ=             -1.0294 ZZZX=            -15.4843
 ZZZY=              0.2558 XXYY=           -228.9147 XXZZ=           -221.8625 YYZZ=           -191.8165
 XXYZ=             -0.3526 YYXZ=             -0.2668 ZZXY=             -4.9858
 N-N= 7.301822020081D+02 E-N=-2.483561099714D+03  KE= 4.451569723976D+02

 **********************************************************************

            Electrostatic Properties Using The SCF Density

 **********************************************************************

       Atomic Center    1 is at  -0.039266 -1.633024 -1.115972
       Atomic Center    2 is at  -0.417894 -0.214694 -1.583756
       Atomic Center    3 is at  -0.142166  0.648885 -0.328236
       Atomic Center    4 is at  -1.194254  0.315139  0.755340
       Atomic Center    5 is at  -0.841870 -1.121771  1.173239
       Atomic Center    6 is at   0.430378 -1.388218  0.335236
       Atomic Center    7 is at   1.133866 -0.010052  0.263980
       Atomic Center    8 is at   2.383736  0.013278 -0.641184
       Atomic Center    9 is at   1.597937  0.526055  1.635047
       Atomic Center   10 is at  -1.176289  1.034979  1.603577
       Atomic Center   11 is at  -0.049392  2.142448 -0.639177
       Atomic Center   12 is at  -2.577799  0.330584  0.176539
       Atomic Center   13 is at  -0.896390 -2.341347 -1.169710
       Atomic Center   14 is at   0.776559 -2.068795 -1.736505
       Atomic Center   15 is at   0.212418  0.109731 -2.442046
       Atomic Center   16 is at  -1.466207 -0.146053 -1.945388
       Atomic Center   17 is at  -0.622931 -1.183348  2.263584
       Atomic Center   18 is at  -1.648809 -1.859081  0.966324
       Atomic Center   19 is at   1.058010 -2.212411  0.738592
       Atomic Center   20 is at   2.796722  1.044266 -0.718697
       Atomic Center   21 is at   3.181593 -0.637946 -0.217598
       Atomic Center   22 is at   2.226908 -0.334690 -1.681462
       Atomic Center   23 is at   2.410349 -0.114598  2.047072
       Atomic Center   24 is at   2.000003  1.559744  1.540312
       Atomic Center   25 is at   0.817560  0.567227  2.420844
       Atomic Center   26 is at   0.175752  2.733473  0.276198
       Atomic Center   27 is at   0.749775  2.351885 -1.384531
       Atomic Center   28 is at  -1.011713  2.514081 -1.057857
       Atomic Center   29 is at  -3.273475  0.188823  0.943378
       Atomic Center   30 is at  -2.752582  1.250814 -0.286610
       Atomic Center   31 is at  -2.679119 -0.439115 -0.522350
 -----------------------------------------------------------------

              Electrostatic Properties (Atomic Units)

 -----------------------------------------------------------------
    Center     Electric         -------- Electric Field --------
               Potential          X             Y             Z
 -----------------------------------------------------------------
    1 Atom    -14.641305      0.002267     -0.003745     -0.000525
    2 Atom    -14.627127      0.002791     -0.000716     -0.001671
    3 Atom    -14.607090      0.005122      0.007329     -0.003751
    4 Atom    -14.547983      0.014936     -0.000795      0.004460
    5 Atom    -14.615477      0.004947     -0.004448      0.003218
    6 Atom    -14.633707      0.004504     -0.005230      0.000450
    7 Atom    -14.623889      0.003687     -0.001613      0.001569
    8 Atom    -14.661085      0.000991      0.000238     -0.000466
    9 Atom    -14.656020      0.001320      0.000401     -0.000187
   10 Atom     -0.926984     -0.002864      0.004265      0.000602
   11 Atom    -14.638613      0.001986      0.000767      0.000400
   12 Atom    -18.089051      0.003066      0.000421      0.002287
   13 Atom     -0.990947     -0.001812     -0.005700      0.000191
   14 Atom     -0.997379      0.000805     -0.002194     -0.002250
   15 Atom     -0.980454     -0.000077      0.004173     -0.001624
   16 Atom     -0.968218     -0.005418      0.002124     -0.006885
   17 Atom     -0.969706     -0.001538     -0.000672      0.003686
   18 Atom     -0.955467     -0.004118     -0.004484     -0.000832
   19 Atom     -0.995484      0.001745     -0.004345      0.002681
   20 Atom     -1.005885      0.002554      0.003931      0.001439
   21 Atom     -1.004816      0.002576     -0.001355      0.003439
   22 Atom     -1.005921     -0.002967     -0.002430     -0.005335
   23 Atom     -1.000497      0.003675     -0.001916      0.000026
   24 Atom     -1.001366      0.003248      0.003614     -0.000563
   25 Atom     -0.997425     -0.005855     -0.000311      0.004477
   26 Atom     -0.984438      0.000814      0.004022      0.003582
   27 Atom     -0.983064      0.001150      0.001011     -0.003520
   28 Atom     -0.976814     -0.003855      0.006349     -0.004763
   29 Atom     -0.771409     -0.005850      0.000250     -0.001058
   30 Atom     -0.772755     -0.006155      0.002234     -0.003365
   31 Atom     -0.770574     -0.003350      0.000008     -0.002778
 -----------------------------------------------------------------
 -----------------------------------------------------
    Center         ---- Electric Field Gradient ----
                     XX            YY            ZZ
 -----------------------------------------------------
    1 Atom     -500.315965   -500.392567   -500.347301
    2 Atom     -500.385416   -500.367900   -500.369050
    3 Atom     -500.468284   -500.383005   -500.473533
    4 Atom     -501.064490   -500.422625   -500.534441
    5 Atom     -500.374555   -500.517669   -500.302928
    6 Atom     -500.518296   -500.432397   -500.488680
    7 Atom     -500.385280   -500.373242   -500.342298
    8 Atom     -500.344567   -500.257959   -500.289964
    9 Atom     -500.290769   -500.276388   -500.362240
   10 Atom       -1.686354     -1.827790     -1.889368
   11 Atom     -500.293521   -500.321811   -500.239534
   12 Atom     -812.426528   -812.518891   -812.505294
   13 Atom       -1.925377     -1.839531     -1.680617
   14 Atom       -1.879696     -1.726421     -1.790444
   15 Atom       -1.790149     -1.695994     -1.891942
   16 Atom       -2.084614     -1.697265     -1.744471
   17 Atom       -1.673026     -1.665334     -2.037187
   18 Atom       -1.888910     -1.842442     -1.681931
   19 Atom       -1.799006     -1.889038     -1.725234
   20 Atom       -1.708984     -2.003067     -1.656357
   21 Atom       -1.850419     -1.781885     -1.711056
   22 Atom       -1.687700     -1.708273     -2.035115
   23 Atom       -1.857285     -1.780876     -1.702364
   24 Atom       -1.703287     -2.001547     -1.663275
   25 Atom       -1.901667     -1.674754     -1.883495
   26 Atom       -1.669077     -1.768064     -1.932413
   27 Atom       -1.847101     -1.658487     -1.821566
   28 Atom       -1.984137     -1.712231     -1.718047
   29 Atom       -1.730354     -1.540338     -1.773587
   30 Atom       -1.542042     -1.878015     -1.619095
   31 Atom       -1.528808     -1.766661     -1.723660
 -----------------------------------------------------
 -----------------------------------------------------
    Center         ---- Electric Field Gradient ----
                     XY            XZ            YZ
 -----------------------------------------------------
    1 Atom        0.006731     -0.056865      0.026258
    2 Atom        0.014694     -0.047981     -0.039344
    3 Atom       -0.034871      0.085923      0.005961
    4 Atom        0.021135     -0.294856     -0.009504
    5 Atom        0.015053     -0.010257      0.043786
    6 Atom       -0.024413      0.054230     -0.023789
    7 Atom        0.024619     -0.031601      0.014537
    8 Atom       -0.000361      0.063362      0.002152
    9 Atom       -0.013873     -0.018337     -0.032061
   10 Atom        0.002915     -0.006816     -0.192597
   11 Atom        0.006816     -0.026467      0.018421
   12 Atom       -0.028138      0.045661      0.006170
   13 Atom       -0.194869     -0.010841     -0.009752
   14 Atom        0.111191      0.162275     -0.083545
   15 Atom       -0.066453      0.172048      0.088458
   16 Atom        0.024827     -0.111412      0.006865
   17 Atom        0.004051     -0.075188      0.017649
   18 Atom       -0.187159     -0.063622     -0.048574
   19 Atom        0.167820     -0.080973      0.108731
   20 Atom       -0.134938      0.013813      0.022040
   21 Atom        0.167773     -0.107459      0.093937
   22 Atom       -0.022994     -0.061381     -0.124167
   23 Atom        0.171258     -0.106148      0.080758
   24 Atom       -0.134856      0.012860      0.034898
   25 Atom        0.007520      0.206944     -0.011907
   26 Atom       -0.042841     -0.065857     -0.173183
   27 Atom       -0.051217      0.194493      0.048835
   28 Atom        0.110944     -0.131777      0.052787
   29 Atom       -0.040470      0.221041      0.043904
   30 Atom        0.069225     -0.034384      0.175002
   31 Atom       -0.032782     -0.030544     -0.219115
 -----------------------------------------------------
 -----------------------------------------------------
    Center         ---- Electric Field Gradient ----
                   ----       Eigenvalues       ----
 -----------------------------------------------------
    1 Atom     -500.416982   -500.367166   -500.271685
    2 Atom     -500.430174   -500.388589   -500.303603
    3 Atom     -500.561504   -500.402525   -500.360794
    4 Atom     -501.196231   -500.432458   -500.392867
    5 Atom     -500.528083   -500.373372   -500.293697
    6 Atom     -500.559913   -500.474255   -500.405204
    7 Atom     -500.419604   -500.355691   -500.325525
    8 Atom     -500.386276   -500.258199   -500.248015
    9 Atom     -500.378337   -500.287688   -500.263373
   10 Atom       -2.053651     -1.688118     -1.661743
   11 Atom     -500.330582   -500.297812   -500.226472
   12 Atom     -812.541906   -812.507781   -812.401026
   13 Atom       -2.082522     -1.683129     -1.679874
   14 Atom       -2.061153     -1.668986     -1.666422
   15 Atom       -2.054598     -1.662052     -1.661435
   16 Atom       -2.119428     -1.711245     -1.695677
   17 Atom       -2.052946     -1.664534     -1.658067
   18 Atom       -2.070673     -1.679353     -1.663258
   19 Atom       -2.070930     -1.673188     -1.669160
   20 Atom       -2.057227     -1.660532     -1.650648
   21 Atom       -2.047823     -1.653041     -1.642497
   22 Atom       -2.087665     -1.677401     -1.666022
   23 Atom       -2.046249     -1.651863     -1.642413
   24 Atom       -2.056992     -1.659797     -1.651321
   25 Atom       -2.100164     -1.686395     -1.673358
   26 Atom       -2.057805     -1.658726     -1.653023
   27 Atom       -2.042292     -1.645503     -1.639358
   28 Atom       -2.079361     -1.674807     -1.660248
   29 Atom       -1.982136     -1.532360     -1.529784
   30 Atom       -1.979882     -1.530952     -1.528317
   31 Atom       -1.969879     -1.525334     -1.523917
 -----------------------------------------------------
 -----------------------------------------------------
    Center         ---- Electric Field Gradient ----
                       ( tensor representation )
                   3XX-RR        3YY-RR        3ZZ-RR
 -----------------------------------------------------
    1 Atom        0.035980     -0.040623      0.004643
    2 Atom       -0.011294      0.006222      0.005072
    3 Atom       -0.026676      0.058602     -0.031926
    4 Atom       -0.390638      0.251227      0.139411
    5 Atom        0.023829     -0.119285      0.095456
    6 Atom       -0.038505      0.047394     -0.008889
    7 Atom       -0.018340     -0.006302      0.024642
    8 Atom       -0.047070      0.039538      0.007532
    9 Atom        0.019030      0.033411     -0.052441
   10 Atom        0.114817     -0.026620     -0.088197
   11 Atom       -0.008565     -0.036856      0.045421
   12 Atom        0.057043     -0.035321     -0.021723
   13 Atom       -0.110202     -0.024356      0.134558
   14 Atom       -0.080842      0.072433      0.008410
   15 Atom        0.002546      0.096701     -0.099247
   16 Atom       -0.242497      0.144852      0.097646
   17 Atom        0.118823      0.126515     -0.245338
   18 Atom       -0.084483     -0.038014      0.122497
   19 Atom        0.005420     -0.084612      0.079192
   20 Atom        0.080485     -0.213597      0.133112
   21 Atom       -0.069299     -0.000765      0.070064
   22 Atom        0.122663      0.102090     -0.224753
   23 Atom       -0.077110     -0.000701      0.077811
   24 Atom        0.086083     -0.212177      0.126095
   25 Atom       -0.081694      0.145218     -0.063523
   26 Atom        0.120775      0.021787     -0.142562
   27 Atom       -0.071383      0.117231     -0.045848
   28 Atom       -0.179332      0.092574      0.086758
   29 Atom       -0.048928      0.141089     -0.092161
   30 Atom        0.137675     -0.198298      0.060623
   31 Atom        0.144235     -0.093618     -0.050617
 -----------------------------------------------------
 -----------------------------------------------------
    Center         ---- Electric Field Gradient ----
                       ( tensor representation )
                   ----       Eigenvalues       ----
 -----------------------------------------------------
    1 Atom       -0.065038     -0.015222      0.080259
    2 Atom       -0.056052     -0.014467      0.070519
    3 Atom       -0.119897      0.039083      0.080814
    4 Atom       -0.522379      0.241394      0.280985
    5 Atom       -0.129699      0.025012      0.104687
    6 Atom       -0.080122      0.005536      0.074586
    7 Atom       -0.052664      0.011249      0.041415
    8 Atom       -0.088780      0.039298      0.049482
    9 Atom       -0.068538      0.022112      0.046426
   10 Atom       -0.252481      0.113053      0.139428
   11 Atom       -0.045627     -0.012857      0.058483
   12 Atom       -0.058335     -0.024210      0.082545
   13 Atom       -0.267347      0.132046      0.135301
   14 Atom       -0.262300      0.129868      0.132431
   15 Atom       -0.261903      0.130643      0.131260
   16 Atom       -0.277312      0.130872      0.146440
   17 Atom       -0.261097      0.127315      0.133782
   18 Atom       -0.266245      0.125075      0.141169
   19 Atom       -0.266504      0.131238      0.135266
   20 Atom       -0.267758      0.128937      0.138821
   21 Atom       -0.266702      0.128079      0.138623
   22 Atom       -0.277303      0.132962      0.144340
   23 Atom       -0.266074      0.128312      0.137762
   24 Atom       -0.267622      0.129573      0.138049
   25 Atom       -0.280191      0.133577      0.146614
   26 Atom       -0.267954      0.131126      0.136828
   27 Atom       -0.266574      0.130214      0.136360
   28 Atom       -0.274556      0.129999      0.144557
   29 Atom       -0.300709      0.149067      0.151643
   30 Atom       -0.300165      0.148765      0.151400
   31 Atom       -0.296836      0.147709      0.149126
 -----------------------------------------------------
 Calling FoFJK, ICntrl=      2127 FMM=F ISym2X=0 I1Cent= 0 IOpClX= 0 NMat=1 NMatS=1 NMatT=0.
 ***** Axes restored to original set *****
 -------------------------------------------------------------------
 Center     Atomic                   Forces (Hartrees/Bohr)
 Number     Number              X              Y              Z
 -------------------------------------------------------------------
      1        6          -0.019119763    0.009633849   -0.001447418
      2        6           0.003744208    0.009592164   -0.007475955
      3        6           0.025486944   -0.004174302   -0.022076930
      4        6          -0.005918984   -0.008399368   -0.001982948
      5        6          -0.013773571   -0.017138483    0.011851315
      6        6          -0.030529266   -0.000542602    0.007108676
      7        6          -0.009848647   -0.005512179    0.003791446
      8        6          -0.002834001    0.002970228   -0.013431631
      9        6           0.004320776   -0.012494588    0.003101919
     10        1          -0.004503484    0.014143991   -0.003317173
     11        6           0.008589739   -0.003740865   -0.002071170
     12        7           0.017090871    0.006852657    0.012955911
     13        1          -0.000491945   -0.008671889   -0.008699207
     14        1           0.009695498   -0.000797402    0.010775865
     15        1           0.003682648   -0.003701774    0.014448754
     16        1          -0.004017846   -0.005095484   -0.007961186
     17        1           0.003204912    0.012822462   -0.005111018
     18        1           0.002469225   -0.007967437   -0.006919286
     19        1           0.011698661    0.004665237    0.000280661
     20        1          -0.008457129    0.003659681    0.008632220
     21        1           0.012112705    0.004740744    0.001863530
     22        1           0.002680115   -0.008644251    0.006401459
     23        1           0.011017685    0.007357356   -0.000840078
     24        1          -0.009212587    0.004940696    0.006817061
     25        1          -0.003483215    0.003152302   -0.008440212
     26        1          -0.002926401    0.011079545   -0.002711224
     27        1           0.003131154    0.000731047    0.013452967
     28        1          -0.004312885   -0.007041336   -0.006066311
     29        1          -0.000627161    0.007176393   -0.015812105
     30        1          -0.012055809    0.002205388    0.010688457
     31        1           0.013187554   -0.011801780    0.002193610
 -------------------------------------------------------------------
 Cartesian Forces:  Max     0.030529266 RMS     0.009405316

 GradGradGradGradGradGradGradGradGradGradGradGradGradGradGradGradGradGrad
 Berny optimization.
 FormGI is forming the generalized inverse of G from B-inverse, IUseBI=4.
 Internal  Forces:  Max     0.017453112 RMS     0.004998472
 Search for a local minimum.
 Step number   1 out of a maximum of  186
 All quantities printed in internal units (Hartrees-Bohrs-Radians)
 Mixed Optimization -- RFO/linear search
 Second derivative matrix not updated -- first step.
 ITU=  0
[...]
       Atomic Center   21 is at   3.196091 -0.433298 -0.157311
       Atomic Center   22 is at   2.247999 -0.168051 -1.613770
       Atomic Center   23 is at   2.357905  0.036854  2.080949
       Atomic Center   24 is at   1.807469  1.636581  1.610057
       Atomic Center   25 is at   0.713717  0.528371  2.434596
       Atomic Center   26 is at  -0.029934  2.749924  0.260561
       Atomic Center   27 is at   0.629937  2.414739 -1.342485
       Atomic Center   28 is at  -1.103180  2.485547 -1.121543
       Atomic Center   29 is at  -3.308348 -0.027536  0.913621
       Atomic Center   30 is at  -2.900982  1.222142 -0.094887
       Atomic Center   31 is at  -2.758831 -0.339152 -0.619057
 -----------------------------------------------------------------

              Electrostatic Properties (Atomic Units)

 -----------------------------------------------------------------
    Center     Electric         -------- Electric Field --------
               Potential          X             Y             Z
 -----------------------------------------------------------------
    1 Atom    -14.647074      0.001053     -0.000181      0.000821
    2 Atom    -14.632373      0.003085     -0.001530      0.001168
    3 Atom    -14.606277      0.004669      0.002180     -0.002029
    4 Atom    -14.549869      0.013665     -0.000978      0.002525
    5 Atom    -14.619406      0.004291     -0.002508     -0.000218
    6 Atom    -14.635551      0.002890     -0.000409     -0.000683
    7 Atom    -14.624497      0.002497     -0.000658      0.000563
    8 Atom    -14.670301     -0.000804     -0.000110      0.001099
    9 Atom    -14.663733      0.000595     -0.000602     -0.002207
   10 Atom     -0.936197     -0.000101      0.012186      0.014842
   11 Atom    -14.643717      0.001640     -0.000788      0.000373
   12 Atom    -18.095071      0.008772     -0.000709      0.003053
   13 Atom     -0.997527     -0.012564     -0.013105     -0.001743
   14 Atom     -1.002742      0.014493     -0.006226     -0.010261
   15 Atom     -0.987830      0.010054      0.006633     -0.014347
   16 Atom     -0.974145     -0.016079      0.000015     -0.006760
   17 Atom     -0.972824      0.002536     -0.001450      0.018566
   18 Atom     -0.962131     -0.012191     -0.012785     -0.003909
   19 Atom     -0.995729      0.011384     -0.013438      0.007363
   20 Atom     -1.010136      0.005896      0.017132     -0.000552
   21 Atom     -1.009922      0.013550     -0.009809      0.006899
   22 Atom     -1.009557     -0.001939     -0.005403     -0.017233
   23 Atom     -1.004963      0.014230     -0.009039      0.006785
   24 Atom     -1.004454      0.005168      0.017399     -0.001066
   25 Atom     -0.999939     -0.012614     -0.001008      0.012381
   26 Atom     -0.985386      0.002573      0.009985      0.014906
   27 Atom     -0.986453      0.013467      0.004427     -0.011609
   28 Atom     -0.978519     -0.014547      0.005606     -0.007922
   29 Atom     -0.776190     -0.013697     -0.006213      0.014847
   30 Atom     -0.777066     -0.005286      0.019422     -0.005903
   31 Atom     -0.778184     -0.002464     -0.012548     -0.016479
 -----------------------------------------------------------------
 -----------------------------------------------------
    Center         ---- Electric Field Gradient ----
                     XX            YY            ZZ
 -----------------------------------------------------
    1 Atom     -500.284880   -500.402516   -500.360214
    2 Atom     -500.367452   -500.396078   -500.366273
    3 Atom     -500.470403   -500.377862   -500.457724
    4 Atom     -501.243623   -500.513953   -500.602793
    5 Atom     -500.379027   -500.531822   -500.294729
    6 Atom     -500.484867   -500.404784   -500.450985
    7 Atom     -500.437446   -500.441743   -500.385527
    8 Atom     -500.362032   -500.268177   -500.301317
    9 Atom     -500.288708   -500.280245   -500.374364
   10 Atom       -1.733747     -1.888453     -1.973868
   11 Atom     -500.252833   -500.326690   -500.217002
   12 Atom     -812.401360   -812.461938   -812.447222
   13 Atom       -1.935448     -1.922916     -1.706850
   14 Atom       -1.976957     -1.743997     -1.836101
   15 Atom       -1.838149     -1.754410     -1.950224
   16 Atom       -2.117331     -1.705958     -1.765140
   17 Atom       -1.698885     -1.697713     -2.134214
   18 Atom       -1.908157     -1.898656     -1.716309
   19 Atom       -1.856445     -1.919145     -1.765599
   20 Atom       -1.726751     -2.093094     -1.683600
   21 Atom       -1.923054     -1.809609     -1.751056
   22 Atom       -1.712191     -1.736499     -2.107971
   23 Atom       -1.950542     -1.793189     -1.738252
   24 Atom       -1.712776     -2.097844     -1.689677
   25 Atom       -1.955969     -1.699049     -1.913942
   26 Atom       -1.683356     -1.810942     -1.994372
   27 Atom       -1.914241     -1.699154     -1.853307
   28 Atom       -2.016985     -1.722922     -1.759484
   29 Atom       -1.781117     -1.612702     -1.829774
   30 Atom       -1.594838     -2.013546     -1.606429
   31 Atom       -1.567049     -1.750044     -1.886808
 -----------------------------------------------------
 -----------------------------------------------------
    Center         ---- Electric Field Gradient ----
                     XY            XZ            YZ
 -----------------------------------------------------
    1 Atom        0.033027     -0.070814      0.035472
    2 Atom        0.023740     -0.052822     -0.049774
    3 Atom       -0.039709      0.083840      0.015205
    4 Atom        0.015940     -0.307095      0.003709
    5 Atom        0.049977     -0.012440      0.054745
    6 Atom       -0.039424      0.064817     -0.027237
    7 Atom        0.047573     -0.049617      0.028119
    8 Atom       -0.009962      0.063999      0.007053
    9 Atom       -0.017705     -0.014629     -0.037981
   10 Atom        0.008945     -0.001232     -0.219197
   11 Atom        0.011505     -0.029759      0.021701
   12 Atom       -0.011459      0.037009      0.013833
   13 Atom       -0.223714     -0.023228     -0.022845
   14 Atom        0.107867      0.193679     -0.074140
   15 Atom       -0.089359      0.189058      0.119439
   16 Atom       -0.000887     -0.136391     -0.002764
   17 Atom        0.004576     -0.060652      0.021252
   18 Atom       -0.204237     -0.080568     -0.073168
   19 Atom        0.190418     -0.103609      0.125286
   20 Atom       -0.131485      0.007449      0.007752
   21 Atom        0.182548     -0.128736      0.100518
   22 Atom       -0.022490     -0.059814     -0.133913
   23 Atom        0.182179     -0.126265      0.079492
   24 Atom       -0.119325      0.009200      0.032262
   25 Atom       -0.023442      0.226027      0.015987
   26 Atom       -0.030710     -0.047011     -0.199386
   27 Atom       -0.075381      0.213446      0.066675
   28 Atom        0.106552     -0.163826      0.057561
   29 Atom       -0.099007      0.239238      0.109104
   30 Atom        0.118604     -0.034950      0.134514
   31 Atom       -0.033716     -0.044772     -0.245868
 -----------------------------------------------------
 -----------------------------------------------------
    Center         ---- Electric Field Gradient ----
                   ----       Eigenvalues       ----
 -----------------------------------------------------
    1 Atom     -500.450293   -500.355665   -500.241652
    2 Atom     -500.437045   -500.404482   -500.288275
    3 Atom     -500.556907   -500.390923   -500.358158
    4 Atom     -501.367331   -500.513828   -500.479210
    5 Atom     -500.558611   -500.364292   -500.282675
    6 Atom     -500.536738   -500.447307   -500.356592
    7 Atom     -500.511352   -500.397880   -500.355483
    8 Atom     -500.403606   -500.267144   -500.260777
    9 Atom     -500.391589   -500.290599   -500.261130
   10 Atom       -2.154533     -1.735806     -1.705728
   11 Atom     -500.334587   -500.263192   -500.198746
   12 Atom     -812.482832   -812.447073   -812.380615
   13 Atom       -2.155350     -1.705417     -1.704447
   14 Atom       -2.154361     -1.702773     -1.699921
   15 Atom       -2.147919     -1.697888     -1.696977
   16 Atom       -2.163979     -1.718916     -1.705533
   17 Atom       -2.143560     -1.697081     -1.690171
   18 Atom       -2.135894     -1.700321     -1.686908
   19 Atom       -2.149598     -1.697953     -1.693637
   20 Atom       -2.135606     -1.688664     -1.679175
   21 Atom       -2.128180     -1.682729     -1.672811
   22 Atom       -2.160305     -1.703937     -1.692419
   23 Atom       -2.127482     -1.681961     -1.672540
   24 Atom       -2.134354     -1.687146     -1.678797
   25 Atom       -2.163656     -1.709273     -1.696030
   26 Atom       -2.129197     -1.683223     -1.676250
   27 Atom       -2.123262     -1.675400     -1.668040
   28 Atom       -2.132360     -1.689695     -1.677336
   29 Atom       -2.091273     -1.567385     -1.564934
   30 Atom       -2.085156     -1.566167     -1.563491
   31 Atom       -2.079753     -1.563251     -1.560897
 -----------------------------------------------------
 -----------------------------------------------------
    Center         ---- Electric Field Gradient ----
                       ( tensor representation )
                   3XX-RR        3YY-RR        3ZZ-RR
 -----------------------------------------------------
    1 Atom        0.064323     -0.053312     -0.011011
    2 Atom        0.009149     -0.019477      0.010328
    3 Atom       -0.035073      0.057468     -0.022394
    4 Atom       -0.456834      0.272837      0.183997
    5 Atom        0.022832     -0.129962      0.107130
    6 Atom       -0.037988      0.042095     -0.004106
    7 Atom       -0.015874     -0.020171      0.036045
    8 Atom       -0.051523      0.042332      0.009192
    9 Atom        0.025731      0.034194     -0.059925
   10 Atom        0.131609     -0.023097     -0.108512
   11 Atom        0.012675     -0.061181      0.048506
   12 Atom        0.035480     -0.025098     -0.010382
   13 Atom       -0.080377     -0.067844      0.148221
   14 Atom       -0.124605      0.108355      0.016250
   15 Atom        0.009445      0.093185     -0.102630
   16 Atom       -0.254521      0.156851      0.097670
   17 Atom        0.144719      0.145891     -0.290610
   18 Atom       -0.067116     -0.057616      0.124732
   19 Atom       -0.009382     -0.072082      0.081464
   20 Atom        0.107731     -0.258612      0.150881
   21 Atom       -0.095148      0.018297      0.076851
   22 Atom        0.140029      0.115722     -0.255751
   23 Atom       -0.123214      0.034139      0.089075
   24 Atom        0.120656     -0.264412      0.143755
   25 Atom       -0.099649      0.157271     -0.057622
   26 Atom        0.146200      0.018614     -0.164815
   27 Atom       -0.092007      0.123080     -0.031073
   28 Atom       -0.183855      0.110209      0.073646
   29 Atom       -0.039920      0.128496     -0.088576
   30 Atom        0.143433     -0.275275      0.131842
   31 Atom        0.167585     -0.015411     -0.152174
 -----------------------------------------------------
 -----------------------------------------------------
    Center         ---- Electric Field Gradient ----
                       ( tensor representation )
                   ----       Eigenvalues       ----
 -----------------------------------------------------
    1 Atom       -0.101090     -0.006461      0.107552
    2 Atom       -0.060444     -0.027881      0.088325
    3 Atom       -0.121578      0.044407      0.077171
    4 Atom       -0.580541      0.272962      0.307580
    5 Atom       -0.156752      0.037568      0.119184
    6 Atom       -0.089859     -0.000429      0.090287
    7 Atom       -0.089780      0.023692      0.066088
    8 Atom       -0.093097      0.043365      0.049732
    9 Atom       -0.077150      0.023841      0.053309
   10 Atom       -0.289177      0.129550      0.159627
   11 Atom       -0.069079      0.002316      0.066762
   12 Atom       -0.045992     -0.010233      0.056225
   13 Atom       -0.300279      0.149655      0.150624
   14 Atom       -0.302009      0.149578      0.152431
   15 Atom       -0.300324      0.149707      0.150617
   16 Atom       -0.301170      0.143894      0.157276
   17 Atom       -0.299956      0.146523      0.153433
   18 Atom       -0.294853      0.140720      0.154133
   19 Atom       -0.302535      0.149110      0.153426
   20 Atom       -0.301125      0.145817      0.155307
   21 Atom       -0.300273      0.145178      0.155095
   22 Atom       -0.308085      0.148283      0.159801
   23 Atom       -0.300154      0.145367      0.154787
   24 Atom       -0.300921      0.146286      0.154635
   25 Atom       -0.307336      0.147046      0.160290
   26 Atom       -0.299640      0.146333      0.153307
   27 Atom       -0.301028      0.146834      0.154194
   28 Atom       -0.299229      0.143435      0.155794
   29 Atom       -0.350076      0.173812      0.176264
   30 Atom       -0.346885      0.172104      0.174780
   31 Atom       -0.345119      0.171383      0.173736
 -----------------------------------------------------

 Test job not archived.
 1|1|UNPC-NP-ALMACH|FOpt|RB3LYP|6-311++G(d,p)|C10H20N1(1+)|HERA|15-Aug-
 2018|0||# RB3LYP/6-311++G** Opt Test prop=EFG||C10NH20||1,1|C,-1.59062
 0895,1.6419559163,-0.1298025427|C,-0.1286975119,1.7917712439,-0.652118
 8891|C,0.5258159485,0.4057072632,-0.3844887923|C,0.6769439186,0.235031
 5805,1.1483431601|C,-0.7726863553,0.1654384672,1.6960174591|C,-1.61464
 50108,0.1913348376,0.3977122095|C,-0.7028420491,-0.5686128715,-0.61768
 25366|C,-1.2305448959,-0.5579462914,-2.0618893376|C,-0.4443080843,-2.0
 427981604,-0.2503416127|H,1.2603903378,-0.6536490007,1.3872871419|C,1.
 8058186574,0.1430294444,-1.1678456649|N,1.4805391607,1.3707649692,1.79
 30491863|H,-1.8419350803,2.3629152712,0.6520289179|H,-2.3132870164,1.7
 906373018,-0.9315885731|H,-0.0992760535,2.005665606,-1.720547006|H,0.4
 099236446,2.6324805554,-0.1957446964|H,-0.9212152909,-0.7433419186,2.2
 793362173|H,-1.0170702335,1.0077907998,2.3519038344|H,-2.6148333279,-0
 .2215123835,0.5282752569|H,-0.5265670114,-1.0564549461,-2.7329449066|H
 ,-2.169171999,-1.1158936153,-2.1118099529|H,-1.4224188388,0.4363899679
 ,-2.4629261813|H,-1.368879083,-2.6137015635,-0.3655261395|H,0.29045719
 05,-2.4874376523,-0.9263343293|H,-0.0965973904,-2.212424103,0.77038146
 53|H,2.2230831307,-0.843936056,-0.9503940198|H,1.6200904226,0.19771669
 42,-2.24225049|H,2.5825579549,0.8888955663,-0.956384151|H,1.5581750953
 ,1.2403751227,2.80491133|H,2.427759414,1.4165593556,1.4058001179|H,1.0
 317412517,2.2751485991,1.6215735251||Version=EM64W-G09RevD.01|State=1-
 A|HF=-447.7490569|RMSD=8.338e-009|RMSF=1.488e-005|Dipole=1.8670297,1.2
 394678,2.1422537|Quadrupole=0.6377733,-3.5909859,2.9532126,5.1265941,8
 .1037212,5.719546|PG=C01 [X(C10H20N1)]||@


                                                                                    A
                                                                                  AA
                                                                                 AAA
                                                                                AAAA
                                                                               AAAAA
                                                                              AAAAAA   KKKKKKKK
                                                                             AAAAAAA   KKKKKKKK
                                                                            AAAAAAAA   KKKKKKKK
                                       ZZZZZZZZZZZZZZZZZZZZ                AAAA  AAA   KKKKKKKK
                                       ZZZZZZZZZZZZZZZZZZZ                AAAA   AAA   KKKKKKKK          K
                                       ZZZZZZZZZZZZZZZZZZ                AAAA    AAA   KKKKKKKK         KKK
                                       ZZZZZZZZZZZZZZZZZ                AAAA     AAA   KKKKKKKK        KKKKK
                                       ZZZZZZZZZZZZZZZZ                AAAA      AAA   KKKKKKKK       KKKKKKK
                                                ZZZZZZ                AAAA       AAA   KKKKKKKK      KKKKKKK
                                               ZZZZZZ                AAAA        AAA   KKKKKKKK     KKKKKKK
                                              ZZZZZZ                AAAA         AAA   KKKKKKKK    KKKKKKK
                                             ZZZZZZ                AAAA          AAA   KKKKKKKK   KKKKKKK
                                            ZZZZZZ                AAAAAAAAAAAAAAAAAA   KKKKKKKK  KKKKKKK
                                           ZZZZZZ                AAAAAAAAAAAAAAAAAAA   KKKKKKKK KKKKKKK
                                          ZZZZZZ                AAAAAAAAAAAAAAAAAAAA   KKKKKKKKKKKKKKK
                                         ZZZZZZ                AAAAAAAAAAAAAAAAAAAAA   KKKKKKKKKKKKKK
                                        ZZZZZZ                AAAAAA        AAAAAAAA   KKKKKKKKKKKKK
                                       ZZZZZZ                AAAAAA         AAAAAAAA   KKKKKKKKKKKK
                                      ZZZZZZ                AAAAAA          AAAAAAAA   KKKKKKKKKKK
                                     ZZZZZZ                AAAAAA           AAAAAAAA   KKKKKKKKKKKK
                                    ZZZZZZ                AAAAAA            AAAAAAAA   KKKKKKKKKKKKK
                                   ZZZZZZ                AAAAAA             AAAAAAAA   KKKKKKKKKKKKKK
                                  ZZZZZZ                AAAAAA              AAAAAAAA   KKKKKKKKKKKKKKK
                                 ZZZZZZ                AAAAAA               AAAAAAAA   KKKKK KKKKKKKKKK
                                ZZZZZZ                AAAAAA                AAAAAAAA   KKKKK  KKKKKKKKKK
                               ZZZZZZ                AAAAAA                            KKKKK   KKKKKKKKKK
                              ZZZZZZ                AAAAAA                             KKKKK    KKKKKKKKKK
                             ZZZZZZ                                                    KKKKK     KKKKKKKKKK
                            ZZZZZZ                                                     KKKKK      KKKKKKKKKK
                           ZZZZZZ                                                      KKKKK       KKKKKKKKKK
                          ZZZZZZ                                                       KKKKK        KKKKKKKKKK
                         ZZZZZZZZZZZZZZZZZZZZZZZZZZZZZZZZZZZZZZZZ                      KKKKK         KKKKKKKKKK
                        ZZZZZZZZZZZZZZZZZZZZZZZZZZZZZZZZZZZZZZZZZ                      KKKKK          KKKKKKKKKK
                       ZZZZZZZZZZZZZZZZZZZZZZZZZZZZZZZZZZZZZZZZZZ                      KKKKK           KKKKKKKKKK
                       ZZZZZZZZZZZZZZZZZZZZZZZZZZZZZZZZZZZZZZZZZZ                      KKKKK            KKKKKKKKKK
                       ZZZZZZZZZZZZZZZZZZZZZZZZZZZZZZZZZZZZZZZZZZ                      KKKKK             KKKKKKKKKK
                       ZZZZZZZZZZZZZZZZZZZZZZZZZZZZZZZZZZZZZZZZZZ                      KKKKK              KKKKKKKKKK
                       ZZZZZZZZZZZZZZZZZZZZZZZZZZZZZZZZZZZZZZZZZZ                      KKKKK               KKKKKKKKKK
                       ZZZZZZZZZZZZZZZZZZZZZZZZZZZZZZZZZZZZZZZZZZ                      KKKKK                KKKKKKKKKK
                       ZZZZZZZZZZZZZZZZZZZZZZZZZZZZZZZZZZZZZZZZZZ                      KKKKK
                                                                                       KKKKK
                                                                                          (J.P.)
 Job cpu time:       0 days  0 hours 18 minutes 10.0 seconds.
 File lengths (MBytes):  RWF=     67 Int=      0 D2E=      0 Chk=     11 Scr=      1
 Normal termination of Gaussian 09 at Wed Aug 15 17:02:46 2018.
