 Entering Link 1 = C:\G09W\l1.exe PID=      8912.
  
 Copyright (c) 1988,1990,1992,1993,1995,1998,2003,2009,2013,
            Gaussian, Inc.  All Rights Reserved.
  
 This is part of the Gaussian(R) 09 program.  It is based on
 the Gaussian(R) 03 system (copyright 2003, Gaussian, Inc.),
 the Gaussian(R) 98 system (copyright 1998, Gaussian, Inc.),
 the Gaussian(R) 94 system (copyright 1995, Gaussian, Inc.),
 the Gaussian 92(TM) system (copyright 1992, Gaussian, Inc.),
 the Gaussian 90(TM) system (copyright 1990, Gaussian, Inc.),
 the Gaussian 88(TM) system (copyright 1988, Gaussian, Inc.),
 the Gaussian 86(TM) system (copyright 1986, Carnegie Mellon
 University), and the Gaussian 82(TM) system (copyright 1983,
 Carnegie Mellon University). Gaussian is a federally registered
 trademark of Gaussian, Inc.
  
 This software contains proprietary and confidential information,
 including trade secrets, belonging to Gaussian, Inc.
  
 This software is provided under written license and may be
 used, copied, transmitted, or stored only in accord with that
 written license.
  
 The following legend is applicable only to US Government
 contracts under FAR:
  
                    RESTRICTED RIGHTS LEGEND
  
 Use, reproduction and disclosure by the US Government is
 subject to restrictions as set forth in subparagraphs (a)
 and (c) of the Commercial Computer Software - Restricted
 Rights clause in FAR 52.227-19.
  
 Gaussian, Inc.
 340 Quinnipiac St., Bldg. 40, Wallingford CT 06492
  
  
 ---------------------------------------------------------------
 Warning -- This program may not be used in any manner that
 competes with the business of Gaussian, Inc. or will provide
 assistance to any competitor of Gaussian, Inc.  The licensee
 of this program is prohibited from giving any competitor of
 Gaussian, Inc. access to this program.  By using this program,
 the user acknowledges that Gaussian, Inc. is engaged in the
 business of creating and licensing software in the field of
 computational chemistry and represents and warrants to the
 licensee that it is not a competitor of Gaussian, Inc. and that
 it will not use this program in any manner prohibited above.
 ---------------------------------------------------------------
  

 Cite this work as:
 Gaussian 09, Revision D.01,
 M. J. Frisch, G. W. Trucks, H. B. Schlegel, G. E. Scuseria, 
 M. A. Robb, J. R. Cheeseman, G. Scalmani, V. Barone, B. Mennucci, 
 G. A. Petersson, H. Nakatsuji, M. Caricato, X. Li, H. P. Hratchian, 
 A. F. Izmaylov, J. Bloino, G. Zheng, J. L. Sonnenberg, M. Hada, 
 M. Ehara, K. Toyota, R. Fukuda, J. Hasegawa, M. Ishida, T. Nakajima, 
 Y. Honda, O. Kitao, H. Nakai, T. Vreven, J. A. Montgomery, Jr., 
 J. E. Peralta, F. Ogliaro, M. Bearpark, J. J. Heyd, E. Brothers, 
 K. N. Kudin, V. N. Staroverov, T. Keith, R. Kobayashi, J. Normand, 
 K. Raghavachari, A. Rendell, J. C. Burant, S. S. Iyengar, J. Tomasi, 
 M. Cossi, N. Rega, J. M. Millam, M. Klene, J. E. Knox, J. B. Cross, 
 V. Bakken, C. Adamo, J. Jaramillo, R. Gomperts, R. E. Stratmann, 
 O. Yazyev, A. J. Austin, R. Cammi, C. Pomelli, J. W. Ochterski, 
 R. L. Martin, K. Morokuma, V. G. Zakrzewski, G. A. Voth, 
 P. Salvador, J. J. Dannenberg, S. Dapprich, A. D. Daniels, 
 O. Farkas, J. B. Foresman, J. V. Ortiz, J. Cioslowski, 
 and D. J. Fox, Gaussian, Inc., Wallingford CT, 2013.
 
 ******************************************
 Gaussian 09:  EM64W-G09RevD.01 13-Apr-2013
                06-Aug-2018 
 ******************************************
 %Chk=Anth_302_trans.chk
 %Mem=64GB
 %NProcShared=20
 Will use up to   20 processors via shared memory.
 -------------------------------------
 # RB3LYP/6-311++G** Opt Test prop=EFG
 -------------------------------------
 1/14=-1,18=20,19=15,26=3,38=1/1,3;
 2/9=110,12=2,17=6,18=5,40=1/2;
 3/5=4,6=6,7=1111,11=2,16=1,25=1,30=1,71=1,74=-5,116=1/1,2,3;
 4//1;
 5/5=2,38=5/2;
 6/7=2,8=2,9=2,10=2,14=1,28=1/1,2;
 7//1,2,3,16;
 1/14=-1,18=20,19=15,26=3/3(2);
 2/9=110/2;
 99//99;
 2/9=110/2;
 3/5=4,6=6,7=1111,11=2,16=1,25=1,30=1,71=1,74=-5,116=1/1,2,3;
 4/5=5,16=3,69=1/1;
 5/5=2,38=5/2;
 7//1,2,3,16;
 1/14=-1,18=20,19=15,26=3/3(-5);
 2/9=110/2;
 6/7=2,8=2,9=2,10=2,14=1,19=2,28=1/1,2;
 99/9=1/99;
 ---------
 302_trans
 ---------
 Symbolic Z-matrix:
 Charge =  1 Multiplicity = 1
 C                     1.37395   3.07491   1.49529 
 C                     0.18209   3.40446   0.98134 
 N                    -0.59715   2.57427   0.33686 
 C                    -0.17385   1.33812   0.18981 
 C                     1.01783   0.93807   0.68253 
 C                     1.79683   1.81484   1.34015 
 C                    -0.89969   0.40675  -0.45792 
 C                    -0.46999  -0.85557  -0.61339 
 C                     0.71459  -1.26934  -0.12663 
 C                     1.43302  -0.33097   0.51825 
 C                    -1.93579   3.06943  -0.20372 
 O                     1.23563  -2.53574  -0.24933 
 C                     0.51006  -3.50171  -0.9733 
 H                     1.98868   3.81784   2.02936 
 H                    -0.16316   4.44367   1.1107 
 H                     2.77662   1.52616   1.7564 
 H                    -1.88331   0.64686  -0.8929 
 H                    -1.12795  -1.54899  -1.16132 
 H                     2.41232  -0.64205   0.9231 
 H                    -1.97147   2.96627  -1.31214 
 H                    -2.77662   2.50503   0.25995 
 H                    -2.1115    4.14486   0.02156 
 H                     1.10303  -4.44367  -0.96997 
 H                    -0.46577  -3.7036   -0.478 
 H                     0.37925  -3.176    -2.02936 
 

 GradGradGradGradGradGradGradGradGradGradGradGradGradGradGradGradGradGrad
 Berny optimization.
 Initialization pass.
                           ----------------------------
                           !    Initial Parameters    !
                           ! (Angstroms and Degrees)  !
 --------------------------                            --------------------------
 ! Name  Definition              Value          Derivative Info.                !
 --------------------------------------------------------------------------------
 ! R1    R(1,2)                  1.3391         estimate D2E/DX2                !
 ! R2    R(1,6)                  1.3382         estimate D2E/DX2                !
 ! R3    R(1,14)                 1.1023         estimate D2E/DX2                !
 ! R4    R(2,3)                  1.3084         estimate D2E/DX2                !
 ! R5    R(2,15)                 1.1027         estimate D2E/DX2                !
 ! R6    R(3,4)                  1.3149         estimate D2E/DX2                !
 ! R7    R(3,11)                 1.5262         estimate D2E/DX2                !
 ! R8    R(4,5)                  1.3502         estimate D2E/DX2                !
 ! R9    R(4,7)                  1.3468         estimate D2E/DX2                !
 ! R10   R(5,6)                  1.3446         estimate D2E/DX2                !
 ! R11   R(5,10)                 1.3453         estimate D2E/DX2                !
 ! R12   R(6,16)                 1.103          estimate D2E/DX2                !
 ! R13   R(7,8)                  1.3425         estimate D2E/DX2                !
 ! R14   R(7,17)                 1.102          estimate D2E/DX2                !
 ! R15   R(8,9)                  1.3459         estimate D2E/DX2                !
 ! R16   R(8,18)                 1.1018         estimate D2E/DX2                !
 ! R17   R(9,10)                 1.3463         estimate D2E/DX2                !
 ! R18   R(9,12)                 1.3749         estimate D2E/DX2                !
 ! R19   R(10,19)                1.1044         estimate D2E/DX2                !
 ! R20   R(11,20)                1.1138         estimate D2E/DX2                !
 ! R21   R(11,21)                1.1138         estimate D2E/DX2                !
 ! R22   R(11,22)                1.1127         estimate D2E/DX2                !
 ! R23   R(12,13)                1.4084         estimate D2E/DX2                !
 ! R24   R(13,23)                1.1131         estimate D2E/DX2                !
 ! R25   R(13,24)                1.1128         estimate D2E/DX2                !
 ! R26   R(13,25)                1.1129         estimate D2E/DX2                !
 ! A1    A(2,1,6)              117.9369         estimate D2E/DX2                !
 ! A2    A(2,1,14)             121.0935         estimate D2E/DX2                !
 ! A3    A(6,1,14)             120.9696         estimate D2E/DX2                !
 ! A4    A(1,2,3)              124.2624         estimate D2E/DX2                !
 ! A5    A(1,2,15)             117.7471         estimate D2E/DX2                !
 ! A6    A(3,2,15)             117.9905         estimate D2E/DX2                !
 ! A7    A(2,3,4)              117.3802         estimate D2E/DX2                !
 ! A8    A(2,3,11)             119.4057         estimate D2E/DX2                !
 ! A9    A(4,3,11)             123.2141         estimate D2E/DX2                !
 ! A10   A(3,4,5)              121.4596         estimate D2E/DX2                !
 ! A11   A(3,4,7)              122.0342         estimate D2E/DX2                !
 ! A12   A(5,4,7)              116.5062         estimate D2E/DX2                !
 ! A13   A(4,5,6)              119.7765         estimate D2E/DX2                !
 ! A14   A(4,5,10)             120.4867         estimate D2E/DX2                !
 ! A15   A(6,5,10)             119.7367         estimate D2E/DX2                !
 ! A16   A(1,6,5)              119.1843         estimate D2E/DX2                !
 ! A17   A(1,6,16)             118.9087         estimate D2E/DX2                !
 ! A18   A(5,6,16)             121.9069         estimate D2E/DX2                !
 ! A19   A(4,7,8)              122.2382         estimate D2E/DX2                !
 ! A20   A(4,7,17)             121.3469         estimate D2E/DX2                !
 ! A21   A(8,7,17)             116.4146         estimate D2E/DX2                !
 ! A22   A(7,8,9)              121.9323         estimate D2E/DX2                !
 ! A23   A(7,8,18)             117.2722         estimate D2E/DX2                !
 ! A24   A(9,8,18)             120.7954         estimate D2E/DX2                !
 ! A25   A(8,9,10)             115.3812         estimate D2E/DX2                !
 ! A26   A(8,9,12)             125.7647         estimate D2E/DX2                !
 ! A27   A(10,9,12)            118.8495         estimate D2E/DX2                !
 ! A28   A(5,10,9)             123.455          estimate D2E/DX2                !
 ! A29   A(5,10,19)            119.6436         estimate D2E/DX2                !
 ! A30   A(9,10,19)            116.9013         estimate D2E/DX2                !
 ! A31   A(3,11,20)            110.5199         estimate D2E/DX2                !
 ! A32   A(3,11,21)            110.5048         estimate D2E/DX2                !
 ! A33   A(3,11,22)            112.3554         estimate D2E/DX2                !
 ! A34   A(20,11,21)           110.0706         estimate D2E/DX2                !
 ! A35   A(20,11,22)           106.6148         estimate D2E/DX2                !
 ! A36   A(21,11,22)           106.6344         estimate D2E/DX2                !
 ! A37   A(9,12,13)            118.8404         estimate D2E/DX2                !
 ! A38   A(12,13,23)           107.724          estimate D2E/DX2                !
 ! A39   A(12,13,24)           110.3277         estimate D2E/DX2                !
 ! A40   A(12,13,25)           110.3408         estimate D2E/DX2                !
 ! A41   A(23,13,24)           108.1977         estimate D2E/DX2                !
 ! A42   A(23,13,25)           108.2494         estimate D2E/DX2                !
 ! A43   A(24,13,25)           111.8638         estimate D2E/DX2                !
 ! D1    D(6,1,2,3)              0.0109         estimate D2E/DX2                !
 ! D2    D(6,1,2,15)          -179.9808         estimate D2E/DX2                !
 ! D3    D(14,1,2,3)           179.984          estimate D2E/DX2                !
 ! D4    D(14,1,2,15)           -0.0078         estimate D2E/DX2                !
 ! D5    D(2,1,6,5)             -0.0305         estimate D2E/DX2                !
 ! D6    D(2,1,6,16)           179.9484         estimate D2E/DX2                !
 ! D7    D(14,1,6,5)           179.9964         estimate D2E/DX2                !
 ! D8    D(14,1,6,16)           -0.0247         estimate D2E/DX2                !
 ! D9    D(1,2,3,4)              0.0232         estimate D2E/DX2                !
 ! D10   D(1,2,3,11)          -179.9919         estimate D2E/DX2                !
 ! D11   D(15,2,3,4)          -179.985          estimate D2E/DX2                !
 ! D12   D(15,2,3,11)           -0.0002         estimate D2E/DX2                !
 ! D13   D(2,3,4,5)             -0.0377         estimate D2E/DX2                !
 ! D14   D(2,3,4,7)           -179.9636         estimate D2E/DX2                !
 ! D15   D(11,3,4,5)           179.9781         estimate D2E/DX2                !
 ! D16   D(11,3,4,7)             0.0521         estimate D2E/DX2                !
 ! D17   D(2,3,11,20)          119.0328         estimate D2E/DX2                !
 ! D18   D(2,3,11,21)         -118.8815         estimate D2E/DX2                !
 ! D19   D(2,3,11,22)            0.083          estimate D2E/DX2                !
 ! D20   D(4,3,11,20)          -60.9832         estimate D2E/DX2                !
 ! D21   D(4,3,11,21)           61.1024         estimate D2E/DX2                !
 ! D22   D(4,3,11,22)         -179.9331         estimate D2E/DX2                !
 ! D23   D(3,4,5,6)              0.0186         estimate D2E/DX2                !
 ! D24   D(3,4,5,10)          -179.8552         estimate D2E/DX2                !
 ! D25   D(7,4,5,6)            179.9484         estimate D2E/DX2                !
 ! D26   D(7,4,5,10)             0.0746         estimate D2E/DX2                !
 ! D27   D(3,4,7,8)            179.8266         estimate D2E/DX2                !
 ! D28   D(3,4,7,17)             0.015          estimate D2E/DX2                !
 ! D29   D(5,4,7,8)             -0.1028         estimate D2E/DX2                !
 ! D30   D(5,4,7,17)          -179.9144         estimate D2E/DX2                !
 ! D31   D(4,5,6,1)              0.0167         estimate D2E/DX2                !
 ! D32   D(4,5,6,16)          -179.9616         estimate D2E/DX2                !
 ! D33   D(10,5,6,1)           179.8915         estimate D2E/DX2                !
 ! D34   D(10,5,6,16)           -0.0868         estimate D2E/DX2                !
 ! D35   D(4,5,10,9)            -0.1297         estimate D2E/DX2                !
 ! D36   D(4,5,10,19)          179.7271         estimate D2E/DX2                !
 ! D37   D(6,5,10,9)           179.9964         estimate D2E/DX2                !
 ! D38   D(6,5,10,19)           -0.1468         estimate D2E/DX2                !
 ! D39   D(4,7,8,9)              0.1841         estimate D2E/DX2                !
 ! D40   D(4,7,8,18)          -179.7184         estimate D2E/DX2                !
 ! D41   D(17,7,8,9)          -179.9956         estimate D2E/DX2                !
 ! D42   D(17,7,8,18)            0.1019         estimate D2E/DX2                !
 ! D43   D(7,8,9,10)            -0.218          estimate D2E/DX2                !
 ! D44   D(7,8,9,12)          -179.4231         estimate D2E/DX2                !
 ! D45   D(18,8,9,10)          179.6811         estimate D2E/DX2                !
 ! D46   D(18,8,9,12)            0.476          estimate D2E/DX2                !
 ! D47   D(8,9,10,5)             0.1943         estimate D2E/DX2                !
 ! D48   D(8,9,10,19)         -179.6661         estimate D2E/DX2                !
 ! D49   D(12,9,10,5)          179.4579         estimate D2E/DX2                !
 ! D50   D(12,9,10,19)          -0.4025         estimate D2E/DX2                !
 ! D51   D(8,9,12,13)            1.8709         estimate D2E/DX2                !
 ! D52   D(10,9,12,13)        -177.3092         estimate D2E/DX2                !
 ! D53   D(9,12,13,23)         179.062          estimate D2E/DX2                !
 ! D54   D(9,12,13,24)         -63.0313         estimate D2E/DX2                !
 ! D55   D(9,12,13,25)          61.0858         estimate D2E/DX2                !
 --------------------------------------------------------------------------------
 Trust Radius=3.00D-01 FncErr=1.00D-07 GrdErr=1.00D-06
 Number of steps in this run=    134 maximum allowed number of steps=    150.
 GradGradGradGradGradGradGradGradGradGradGradGradGradGradGradGradGradGrad

                          Input orientation:                          
 ---------------------------------------------------------------------
 Center     Atomic      Atomic             Coordinates (Angstroms)
 Number     Number       Type             X           Y           Z
 ---------------------------------------------------------------------
      1          6           0        1.373950    3.074909    1.495285
      2          6           0        0.182088    3.404460    0.981338
      3          7           0       -0.597151    2.574267    0.336859
      4          6           0       -0.173849    1.338118    0.189814
      5          6           0        1.017829    0.938069    0.682534
      6          6           0        1.796827    1.814838    1.340153
      7          6           0       -0.899692    0.406750   -0.457921
      8          6           0       -0.469988   -0.855570   -0.613389
      9          6           0        0.714589   -1.269340   -0.126631
     10          6           0        1.433023   -0.330974    0.518250
     11          6           0       -1.935791    3.069428   -0.203717
     12          8           0        1.235634   -2.535738   -0.249332
     13          6           0        0.510057   -3.501714   -0.973302
     14          1           0        1.988680    3.817836    2.029358
     15          1           0       -0.163158    4.443673    1.110701
     16          1           0        2.776617    1.526163    1.756398
     17          1           0       -1.883309    0.646855   -0.892903
     18          1           0       -1.127952   -1.548994   -1.161318
     19          1           0        2.412324   -0.642051    0.923100
     20          1           0       -1.971470    2.966265   -1.312143
     21          1           0       -2.776617    2.505031    0.259954
     22          1           0       -2.111497    4.144863    0.021556
     23          1           0        1.103025   -4.443673   -0.969968
     24          1           0       -0.465765   -3.703598   -0.478000
     25          1           0        0.379247   -3.175999   -2.029358
 ---------------------------------------------------------------------
                    Distance matrix (angstroms):
                    1          2          3          4          5
     1  C    0.000000
     2  C    1.339134   0.000000
     3  N    2.340477   1.308353   0.000000
     4  C    2.667654   2.241198   1.314865   0.000000
     5  C    2.313757   2.621227   2.324822   1.350151   0.000000
     6  C    1.338159   2.294129   2.704526   2.331117   1.344628
     7  C    4.012921   3.496853   2.328376   1.346794   2.293431
     8  C    4.826518   4.595238   3.561309   2.354804   2.666488
     9  C    4.683788   4.832759   4.087640   2.772778   2.370518
    10  C    3.543745   3.966454   3.548934   2.340038   1.345305
    11  C    3.720353   2.449901   1.526225   2.501348   3.748600
    12  O    5.877260   6.157147   5.460300   4.145630   3.603214
    13  C    7.077585   7.184944   6.313476   5.024394   4.765637
    14  H    1.102301   2.129084   3.331297   3.769543   3.324086
    15  H    2.093829   1.102675   2.069266   3.239231   3.723885
    16  H    2.105770   3.295497   3.807351   3.345863   2.142982
    17  H    4.712603   3.922121   2.623249   2.138311   3.314123
    18  H    5.890461   5.553727   4.419000   3.327354   3.766915
    19  H    3.901462   4.620779   4.443571   3.338723   2.121148
    20  H    4.368671   3.176457   2.182114   2.852749   4.126527
    21  H    4.367838   3.175422   2.181921   2.853245   4.126956
    22  H    3.932559   2.594207   2.204412   3.414763   4.529139
    23  H    7.917067   8.139343   7.338248   6.033623   5.630379
    24  H    7.295654   7.285181   6.331891   5.094123   5.009288
    25  H    7.244749   7.239171   6.294275   5.060424   4.968672
                    6          7          8          9         10
     6  C    0.000000
     7  C    3.533694   0.000000
     8  C    4.010718   1.342486   0.000000
     9  C    3.582576   2.350518   1.345868   0.000000
    10  C    2.326454   2.634142   2.275359   1.346310   0.000000
    11  C    4.229653   2.868445   4.209753   5.084817   4.840752
    12  O    4.665717   3.641615   2.421704   1.374884   2.342889
    13  C    5.939156   4.186777   2.844662   2.396284   3.623560
    14  H    2.126926   5.115150   5.905073   5.670181   4.450261
    15  H    3.287090   4.393154   5.581094   5.911002   5.069127
    16  H    1.102988   4.435261   4.672150   3.951278   2.605228
    17  H    4.460283   1.101981   2.081558   3.317838   3.734375
    18  H    5.111463   2.090886   1.101807   2.131605   3.295924
    19  H    2.566919   3.738536   3.273242   2.092303   1.104402
    20  H    4.749792   2.903364   4.165228   5.153708   5.080620
    21  H    4.749693   2.905336   4.168561   5.155952   5.082392
    22  H    4.737374   3.958770   5.301135   6.109199   5.730920
    23  H    6.707233   5.272539   3.933955   3.307339   4.386113
    24  H    6.235234   4.133238   2.851247   2.728059   3.996561
    25  H    6.186404   4.115968   2.847904   2.714438   3.961681
                   11         12         13         14         15
    11  C    0.000000
    12  O    6.440334   0.000000
    13  C    7.053676   1.408440   0.000000
    14  H    4.576922   6.791716   8.048485   0.000000
    15  H    2.599706   7.246964   8.241690   2.421985   0.000000
    16  H    5.332027   4.785041   6.153706   2.438671   4.191786
    17  H    2.519244   4.502320   4.790124   5.795432   4.624843
    18  H    4.785334   2.718809   2.555688   6.978300   6.481123
    19  H    5.826740   2.518977   3.923345   4.614528   5.703761
    20  H    1.113788   6.456556   6.935960   5.251056   3.364952
    21  H    1.113788   6.462730   6.957308   5.249981   3.363372
    22  H    1.112736   7.477105   8.144472   4.577081   2.252010
    23  H    8.140530   2.043800   1.113063   8.833622   9.215060
    24  H    6.936144   2.076281   1.112794   8.299585   8.306237
    25  H    6.906354   2.076494   1.112859   8.244827   8.259151
                   16         17         18         19         20
    16  H    0.000000
    17  H    5.432024   0.000000
    18  H    5.763273   2.337598   0.000000
    19  H    2.351222   4.838554   4.207244   0.000000
    20  H    5.833881   2.358643   4.595850   6.101959   0.000000
    21  H    5.834032   2.362180   4.601438   6.104834   1.825510
    22  H    5.810415   3.622757   5.898013   6.647728   1.785344
    23  H    6.772955   5.902339   3.659650   4.444131   8.029744
    24  H    6.546448   4.594346   2.355363   4.429396   6.888397
    25  H    6.495357   4.585292   2.381656   4.389909   6.615714
                   21         22         23         24         25
    21  H    0.000000
    22  H    1.785572   0.000000
    23  H    8.052876   9.223840   0.000000
    24  H    6.665710   8.034695   1.803010   0.000000
    25  H    6.890176   8.000317   1.803652   1.843670   0.000000
 Stoichiometry    C11H12NO(1+)
 Framework group  C1[X(C11H12NO)]
 Deg. of freedom    69
 Full point group                 C1      NOp   1
 Largest Abelian subgroup         C1      NOp   1
 Largest concise Abelian subgroup C1      NOp   1
                         Standard orientation:                         
 ---------------------------------------------------------------------
 Center     Atomic      Atomic             Coordinates (Angstroms)
 Number     Number       Type             X           Y           Z
 ---------------------------------------------------------------------
      1          6           0       -2.557822   -1.641385    0.010048
      2          6           0       -2.927986   -0.354427    0.010485
      3          7           0       -2.092438    0.652347    0.003299
      4          6           0       -0.807837    0.371994   -0.005325
      5          6           0       -0.364954   -0.903452   -0.005978
      6          6           0       -1.248401   -1.917101    0.001949
      7          6           0        0.133518    1.335143   -0.012470
      8          6           0        1.446134    1.053580   -0.017849
      9          6           0        1.902592   -0.212517   -0.020094
     10          6           0        0.954084   -1.167931   -0.011951
     11          6           0       -2.636980    2.078122    0.004871
     12          8           0        3.224599   -0.590104   -0.014309
     13          6           0        4.216260    0.408831    0.035099
     14          1           0       -3.307592   -2.449389    0.016608
     15          1           0       -4.007726   -0.130807    0.017495
     16          1           0       -0.925573   -2.971788    0.002333
     17          1           0       -0.138815    2.402942   -0.011106
     18          1           0        2.145173    1.905239   -0.018726
     19          1           0        1.300988   -2.216427   -0.007834
     20          1           0       -2.297170    2.624828    0.913808
     21          1           0       -2.311690    2.620999   -0.911641
     22          1           0       -3.749321    2.106326    0.013882
     23          1           0        5.207221   -0.097838    0.048944
     24          1           0        4.165860    1.048865   -0.873816
     25          1           0        4.117276    1.006330    0.968723
 ---------------------------------------------------------------------
 Rotational constants (GHZ):      1.9476241      0.5386538      0.4243862
 Standard basis: 6-311++G(d,p) (5D, 7F)
 There are   383 symmetry adapted cartesian basis functions of A   symmetry.
 There are   370 symmetry adapted basis functions of A   symmetry.
   370 basis functions,   576 primitive gaussians,   383 cartesian basis functions
    46 alpha electrons       46 beta electrons
       nuclear repulsion energy       774.8874600217 Hartrees.
 NAtoms=   25 NActive=   25 NUniq=   25 SFac= 1.00D+00 NAtFMM=   60 NAOKFM=F Big=F
 Integral buffers will be    131072 words long.
 Raffenetti 2 integral format.
 Two-electron integral symmetry is turned on.
 One-electron integrals computed using PRISM.
 NBasis=   370 RedAO= T EigKep=  1.19D-06  NBF=   370
 NBsUse=   366 1.00D-06 EigRej=  6.05D-07 NBFU=   366
 ExpMin= 3.60D-02 ExpMax= 8.59D+03 ExpMxC= 1.30D+03 IAcc=3 IRadAn=         5 AccDes= 0.00D+00
 Harris functional with IExCor=  402 and IRadAn=       5 diagonalized for initial guess.
 HarFok:  IExCor=  402 AccDes= 0.00D+00 IRadAn=         5 IDoV= 1 UseB2=F ITyADJ=14
 ICtDFT=  3500011 ScaDFX=  1.000000  1.000000  1.000000  1.000000
 FoFCou: FMM=F IPFlag=           0 FMFlag=      100000 FMFlg1=           0
         NFxFlg=           0 DoJE=T BraDBF=F KetDBF=T FulRan=T
         wScrn=  0.000000 ICntrl=     500 IOpCl=  0 I1Cent=   200000004 NGrid=           0
         NMat0=    1 NMatS0=      1 NMatT0=    0 NMatD0=    1 NMtDS0=    0 NMtDT0=    0
 Petite list used in FoFCou.
 Keep R1 ints in memory in canonical form, NReq=2384196423.
 Requested convergence on RMS density matrix=1.00D-08 within 128 cycles.
 Requested convergence on MAX density matrix=1.00D-06.
 Requested convergence on             energy=1.00D-06.
 No special actions if energy rises.
 SCF Done:  E(RB3LYP) =  -556.242602378     A.U. after   15 cycles
            NFock= 15  Conv=0.73D-08     -V/T= 2.0021

 **********************************************************************

            Population analysis using the SCF density.

 **********************************************************************

 Orbital symmetries:
       Occupied  (A) (A) (A) (A) (A) (A) (A) (A) (A) (A) (A) (A)
                 (A) (A) (A) (A) (A) (A) (A) (A) (A) (A) (A) (A)
                 (A) (A) (A) (A) (A) (A) (A) (A) (A) (A) (A) (A)
                 (A) (A) (A) (A) (A) (A) (A) (A) (A) (A)
       Virtual   (A) (A) (A) (A) (A) (A) (A) (A) (A) (A) (A) (A)
                 (A) (A) (A) (A) (A) (A) (A) (A) (A) (A) (A) (A)
                 (A) (A) (A) (A) (A) (A) (A) (A) (A) (A) (A) (A)
                 (A) (A) (A) (A) (A) (A) (A) (A) (A) (A) (A) (A)
                 (A) (A) (A) (A) (A) (A) (A) (A) (A) (A) (A) (A)
                 (A) (A) (A) (A) (A) (A) (A) (A) (A) (A) (A) (A)
                 (A) (A) (A) (A) (A) (A) (A) (A) (A) (A) (A) (A)
                 (A) (A) (A) (A) (A) (A) (A) (A) (A) (A) (A) (A)
                 (A) (A) (A) (A) (A) (A) (A) (A) (A) (A) (A) (A)
                 (A) (A) (A) (A) (A) (A) (A) (A) (A) (A) (A) (A)
                 (A) (A) (A) (A) (A) (A) (A) (A) (A) (A) (A) (A)
                 (A) (A) (A) (A) (A) (A) (A) (A) (A) (A) (A) (A)
                 (A) (A) (A) (A) (A) (A) (A) (A) (A) (A) (A) (A)
                 (A) (A) (A) (A) (A) (A) (A) (A) (A) (A) (A) (A)
                 (A) (A) (A) (A) (A) (A) (A) (A) (A) (A) (A) (A)
                 (A) (A) (A) (A) (A) (A) (A) (A) (A) (A) (A) (A)
                 (A) (A) (A) (A) (A) (A) (A) (A) (A) (A) (A) (A)
                 (A) (A) (A) (A) (A) (A) (A) (A) (A) (A) (A) (A)
                 (A) (A) (A) (A) (A) (A) (A) (A) (A) (A) (A) (A)
                 (A) (A) (A) (A) (A) (A) (A) (A) (A) (A) (A) (A)
                 (A) (A) (A) (A) (A) (A) (A) (A) (A) (A) (A) (A)
                 (A) (A) (A) (A) (A) (A) (A) (A) (A) (A) (A) (A)
                 (A) (A) (A) (A) (A) (A) (A) (A) (A) (A) (A) (A)
                 (A) (A) (A) (A) (A) (A) (A) (A) (A) (A) (A) (A)
                 (A) (A) (A) (A) (A) (A) (A) (A) (A) (A) (A) (A)
                 (A) (A) (A) (A) (A) (A) (A) (A) (A) (A) (A) (A)
                 (A) (A) (A) (A) (A) (A) (A) (A)
 The electronic state is 1-A.
 Alpha  occ. eigenvalues --  -19.28627 -14.57869 -10.39831 -10.38969 -10.37953
 Alpha  occ. eigenvalues --  -10.37849 -10.35565 -10.34210 -10.34174 -10.34116
 Alpha  occ. eigenvalues --  -10.33111 -10.32955 -10.31832  -1.20937  -1.20175
 Alpha  occ. eigenvalues --   -1.05821  -1.01814  -0.95224  -0.92867  -0.89827
 Alpha  occ. eigenvalues --   -0.85394  -0.83169  -0.79768  -0.78383  -0.72646
 Alpha  occ. eigenvalues --   -0.70944  -0.68314  -0.65888  -0.65106  -0.64596
 Alpha  occ. eigenvalues --   -0.63146  -0.60001  -0.59342  -0.58855  -0.57741
 Alpha  occ. eigenvalues --   -0.57320  -0.55790  -0.55165  -0.53803  -0.53144
 Alpha  occ. eigenvalues --   -0.51001  -0.49557  -0.46946  -0.46037  -0.42138
 Alpha  occ. eigenvalues --   -0.37961
 Alpha virt. eigenvalues --   -0.24167  -0.17177  -0.14855  -0.13285  -0.12026
 Alpha virt. eigenvalues --   -0.10604  -0.10115  -0.09439  -0.08834  -0.08409
 Alpha virt. eigenvalues --   -0.07106  -0.06692  -0.06595  -0.06421  -0.05953
 Alpha virt. eigenvalues --   -0.05531  -0.05357  -0.03941  -0.03511  -0.03033
 Alpha virt. eigenvalues --   -0.02292  -0.01504  -0.01432  -0.01086  -0.01051
 Alpha virt. eigenvalues --   -0.00621   0.00178   0.00291   0.00778   0.01866
 Alpha virt. eigenvalues --    0.02280   0.02454   0.02691   0.02821   0.03581
 Alpha virt. eigenvalues --    0.03939   0.03988   0.04378   0.04461   0.04764
 Alpha virt. eigenvalues --    0.04878   0.05042   0.05416   0.05921   0.06438
 Alpha virt. eigenvalues --    0.06531   0.06948   0.07119   0.07419   0.08787
 Alpha virt. eigenvalues --    0.09034   0.09668   0.09805   0.10042   0.11092
 Alpha virt. eigenvalues --    0.11617   0.12060   0.12440   0.12967   0.13220
 Alpha virt. eigenvalues --    0.13710   0.14186   0.14733   0.15342   0.15736
 Alpha virt. eigenvalues --    0.15900   0.16616   0.17518   0.18077   0.18548
 Alpha virt. eigenvalues --    0.19283   0.20156   0.20486   0.20849   0.21346
 Alpha virt. eigenvalues --    0.21761   0.22052   0.23117   0.23947   0.24339
 Alpha virt. eigenvalues --    0.25621   0.26502   0.26748   0.27512   0.29361
 Alpha virt. eigenvalues --    0.30969   0.32494   0.33219   0.34987   0.35364
 Alpha virt. eigenvalues --    0.37582   0.38261   0.39960   0.40207   0.40977
 Alpha virt. eigenvalues --    0.41458   0.42239   0.42327   0.43435   0.44041
 Alpha virt. eigenvalues --    0.44542   0.45460   0.46491   0.46863   0.47565
 Alpha virt. eigenvalues --    0.48285   0.49018   0.49139   0.49644   0.52108
 Alpha virt. eigenvalues --    0.53033   0.53340   0.54125   0.55016   0.55374
 Alpha virt. eigenvalues --    0.56925   0.57707   0.58033   0.58723   0.60549
 Alpha virt. eigenvalues --    0.61908   0.63257   0.63993   0.65626   0.65824
 Alpha virt. eigenvalues --    0.66596   0.67134   0.69100   0.71073   0.71210
 Alpha virt. eigenvalues --    0.72117   0.73500   0.74914   0.76420   0.77344
 Alpha virt. eigenvalues --    0.77389   0.78229   0.79324   0.80708   0.81824
 Alpha virt. eigenvalues --    0.82066   0.82460   0.85277   0.88337   0.89057
 Alpha virt. eigenvalues --    0.89531   0.89823   0.91004   0.91525   0.93375
 Alpha virt. eigenvalues --    0.94809   0.95747   0.96651   0.97751   0.98760
 Alpha virt. eigenvalues --    1.01042   1.04060   1.04674   1.11265   1.11931
 Alpha virt. eigenvalues --    1.16655   1.18683   1.18808   1.23008   1.24456
 Alpha virt. eigenvalues --    1.26398   1.27352   1.31092   1.31306   1.33673
 Alpha virt. eigenvalues --    1.36101   1.37465   1.38679   1.40159   1.40345
 Alpha virt. eigenvalues --    1.41238   1.43631   1.43763   1.44703   1.44948
 Alpha virt. eigenvalues --    1.47086   1.48818   1.49097   1.49314   1.49867
 Alpha virt. eigenvalues --    1.55602   1.56106   1.56711   1.57049   1.57437
 Alpha virt. eigenvalues --    1.58690   1.59697   1.61159   1.62479   1.64579
 Alpha virt. eigenvalues --    1.64690   1.65746   1.68650   1.69819   1.73001
 Alpha virt. eigenvalues --    1.75050   1.76066   1.77492   1.78713   1.79607
 Alpha virt. eigenvalues --    1.81139   1.82511   1.85272   1.86426   1.86892
 Alpha virt. eigenvalues --    1.88899   1.88919   1.92432   1.93638   1.97189
 Alpha virt. eigenvalues --    1.98226   1.99038   2.00062   2.01625   2.01857
 Alpha virt. eigenvalues --    2.05499   2.05653   2.06448   2.09773   2.12790
 Alpha virt. eigenvalues --    2.19656   2.22171   2.22299   2.25807   2.26860
 Alpha virt. eigenvalues --    2.27570   2.29412   2.31720   2.33844   2.34591
 Alpha virt. eigenvalues --    2.37689   2.40237   2.41150   2.42534   2.42617
 Alpha virt. eigenvalues --    2.45181   2.47564   2.48081   2.50160   2.54527
 Alpha virt. eigenvalues --    2.55711   2.57621   2.57769   2.58411   2.58906
 Alpha virt. eigenvalues --    2.60218   2.60710   2.62882   2.65254   2.65637
 Alpha virt. eigenvalues --    2.66403   2.66621   2.71475   2.71542   2.72328
 Alpha virt. eigenvalues --    2.74336   2.75921   2.78315   2.79225   2.84570
 Alpha virt. eigenvalues --    2.89943   2.90446   2.92164   2.94721   2.98183
 Alpha virt. eigenvalues --    2.98821   3.01768   3.04367   3.11628   3.17755
 Alpha virt. eigenvalues --    3.20976   3.26145   3.29312   3.32586   3.34017
 Alpha virt. eigenvalues --    3.36316   3.40632   3.42213   3.51034   3.53122
 Alpha virt. eigenvalues --    3.54662   3.55464   3.60049   3.63381   3.65636
 Alpha virt. eigenvalues --    3.68229   3.72246   3.75952   3.85940   3.87874
 Alpha virt. eigenvalues --    3.95856   3.98443   4.02984   4.06125   4.12885
 Alpha virt. eigenvalues --    4.36797   4.72411   4.77797   4.91305   5.13079
 Alpha virt. eigenvalues --    5.28209   5.68050  23.41346  23.69223  23.72884
 Alpha virt. eigenvalues --   23.77221  23.90993  23.92157  24.00898  24.09201
 Alpha virt. eigenvalues --   24.12515  24.17458  24.24467  35.52633  49.85007
          Condensed to atoms (all electrons):
               1          2          3          4          5          6
     1  C    7.136794  -0.621661  -0.331393  -0.219899   0.165131   0.232751
     2  C   -0.621661   7.115147   0.634125   0.175647  -0.234614   0.243723
     3  N   -0.331393   0.634125   6.738528   0.191572  -0.246779  -0.116071
     4  C   -0.219899   0.175647   0.191572   9.514094   0.341570   1.342232
     5  C    0.165131  -0.234614  -0.246779   0.341570   8.218547   0.480470
     6  C    0.232751   0.243723  -0.116071   1.342232   0.480470   7.925926
     7  C    0.210166  -0.645600  -0.204773   0.108960   0.002565  -1.054924
     8  C    0.455957  -0.464399  -0.136984  -3.049003   0.638066  -0.352920
     9  C   -0.283754  -0.079378   0.073559  -1.111294  -3.004583  -1.084141
    10  C   -0.598966  -0.655282   0.019934  -1.001338  -0.788851  -2.005054
    11  C   -0.041688  -0.029734   0.343394  -0.025911  -0.067097   0.014004
    12  O    0.001250   0.001894   0.001821   0.001129  -0.009009   0.043043
    13  C    0.004564  -0.003997  -0.000101  -0.110016  -0.019193  -0.022658
    14  H    0.418931  -0.087957   0.008042   0.000117   0.015114  -0.054334
    15  H   -0.000726   0.409824  -0.052499   0.004759   0.011424  -0.004250
    16  H   -0.026297   0.067509   0.002186   0.033419  -0.076808   0.389263
    17  H    0.004020  -0.017364  -0.037879  -0.175839  -0.007700  -0.059629
    18  H    0.004282  -0.004640  -0.007825   0.104124   0.106517   0.036393
    19  H    0.010221  -0.040276   0.000611  -0.061772  -0.138896  -0.162783
    20  H   -0.015056  -0.004080  -0.015392  -0.020887   0.002957  -0.004023
    21  H   -0.015416  -0.003640  -0.016290  -0.004955   0.003038   0.000235
    22  H    0.073310  -0.037308  -0.066632   0.015127  -0.001804   0.001578
    23  H    0.000312  -0.000431  -0.000050  -0.006402  -0.000576  -0.004224
    24  H   -0.000479   0.000448   0.000185   0.003591  -0.018297  -0.000329
    25  H   -0.000466   0.000471   0.000208   0.000520  -0.004908   0.001322
               7          8          9         10         11         12
     1  C    0.210166   0.455957  -0.283754  -0.598966  -0.041688   0.001250
     2  C   -0.645600  -0.464399  -0.079378  -0.655282  -0.029734   0.001894
     3  N   -0.204773  -0.136984   0.073559   0.019934   0.343394   0.001821
     4  C    0.108960  -3.049003  -1.111294  -1.001338  -0.025911   0.001129
     5  C    0.002565   0.638066  -3.004583  -0.788851  -0.067097  -0.009009
     6  C   -1.054924  -0.352920  -1.084141  -2.005054   0.014004   0.043043
     7  C    7.670263   1.027160  -1.228888   0.024329  -0.111405   0.053279
     8  C    1.027160   9.837160  -1.392226  -0.991919  -0.181616   0.173349
     9  C   -1.228888  -1.392226  11.850063   2.943349   0.035183  -0.057042
    10  C    0.024329  -0.991919   2.943349   9.281101  -0.016778  -0.218449
    11  C   -0.111405  -0.181616   0.035183  -0.016778   5.272781  -0.000907
    12  O    0.053279   0.173349  -0.057042  -0.218449  -0.000907   8.174442
    13  C   -0.193109  -0.238093   0.259763   0.149777   0.000798   0.179216
    14  H    0.004110   0.000690   0.001169   0.018516   0.003219  -0.000057
    15  H    0.000849  -0.005025  -0.006786  -0.018732  -0.018469   0.000027
    16  H   -0.014199   0.016379  -0.001468  -0.065135  -0.000166   0.001953
    17  H    0.344423   0.060502   0.116184   0.076031   0.005855  -0.000578
    18  H    0.040248   0.369820  -0.256785  -0.053947   0.000219  -0.016999
    19  H   -0.001058  -0.084095   0.122420   0.658885  -0.001449  -0.033518
    20  H    0.016237  -0.003541  -0.001304  -0.003567   0.402365   0.000101
    21  H    0.010122  -0.011066  -0.003796  -0.004633   0.400257   0.000119
    22  H    0.020029   0.007476  -0.001105  -0.000108   0.357246  -0.000055
    23  H   -0.009161  -0.011464   0.064147   0.000574   0.000085  -0.063992
    24  H    0.001428   0.018000  -0.022139   0.001722  -0.000049  -0.034326
    25  H   -0.013950  -0.005764  -0.021975   0.024385  -0.000137  -0.033158
              13         14         15         16         17         18
     1  C    0.004564   0.418931  -0.000726  -0.026297   0.004020   0.004282
     2  C   -0.003997  -0.087957   0.409824   0.067509  -0.017364  -0.004640
     3  N   -0.000101   0.008042  -0.052499   0.002186  -0.037879  -0.007825
     4  C   -0.110016   0.000117   0.004759   0.033419  -0.175839   0.104124
     5  C   -0.019193   0.015114   0.011424  -0.076808  -0.007700   0.106517
     6  C   -0.022658  -0.054334  -0.004250   0.389263  -0.059629   0.036393
     7  C   -0.193109   0.004110   0.000849  -0.014199   0.344423   0.040248
     8  C   -0.238093   0.000690  -0.005025   0.016379   0.060502   0.369820
     9  C    0.259763   0.001169  -0.006786  -0.001468   0.116184  -0.256785
    10  C    0.149777   0.018516  -0.018732  -0.065135   0.076031  -0.053947
    11  C    0.000798   0.003219  -0.018469  -0.000166   0.005855   0.000219
    12  O    0.179216  -0.000057   0.000027   0.001953  -0.000578  -0.016999
    13  C    5.127683   0.000115  -0.000133  -0.001577   0.008910  -0.012792
    14  H    0.000115   0.451345  -0.008215  -0.015753   0.000297  -0.000088
    15  H   -0.000133  -0.008215   0.444804   0.002195   0.000243  -0.000179
    16  H   -0.001577  -0.015753   0.002195   0.482025  -0.001470   0.001111
    17  H    0.008910   0.000297   0.000243  -0.001470   0.518975  -0.021848
    18  H   -0.012792  -0.000088  -0.000179   0.001111  -0.021848   0.493852
    19  H    0.009266   0.003265  -0.000647  -0.014436   0.003996  -0.005447
    20  H   -0.000092  -0.000379   0.000566   0.000220  -0.004697   0.000160
    21  H   -0.000225  -0.000353   0.000960   0.000304  -0.006155   0.000288
    22  H    0.000108   0.002413  -0.001933  -0.000709   0.003781   0.000421
    23  H    0.396470   0.000017  -0.000009  -0.000247   0.000331   0.001988
    24  H    0.399797  -0.000015   0.000009   0.000031   0.001553  -0.011627
    25  H    0.408062  -0.000019   0.000014   0.000132   0.001343  -0.011510
              19         20         21         22         23         24
     1  C    0.010221  -0.015056  -0.015416   0.073310   0.000312  -0.000479
     2  C   -0.040276  -0.004080  -0.003640  -0.037308  -0.000431   0.000448
     3  N    0.000611  -0.015392  -0.016290  -0.066632  -0.000050   0.000185
     4  C   -0.061772  -0.020887  -0.004955   0.015127  -0.006402   0.003591
     5  C   -0.138896   0.002957   0.003038  -0.001804  -0.000576  -0.018297
     6  C   -0.162783  -0.004023   0.000235   0.001578  -0.004224  -0.000329
     7  C   -0.001058   0.016237   0.010122   0.020029  -0.009161   0.001428
     8  C   -0.084095  -0.003541  -0.011066   0.007476  -0.011464   0.018000
     9  C    0.122420  -0.001304  -0.003796  -0.001105   0.064147  -0.022139
    10  C    0.658885  -0.003567  -0.004633  -0.000108   0.000574   0.001722
    11  C   -0.001449   0.402365   0.400257   0.357246   0.000085  -0.000049
    12  O   -0.033518   0.000101   0.000119  -0.000055  -0.063992  -0.034326
    13  C    0.009266  -0.000092  -0.000225   0.000108   0.396470   0.399797
    14  H    0.003265  -0.000379  -0.000353   0.002413   0.000017  -0.000015
    15  H   -0.000647   0.000566   0.000960  -0.001933  -0.000009   0.000009
    16  H   -0.014436   0.000220   0.000304  -0.000709  -0.000247   0.000031
    17  H    0.003996  -0.004697  -0.006155   0.003781   0.000331   0.001553
    18  H   -0.005447   0.000160   0.000288   0.000421   0.001988  -0.011627
    19  H    0.519002  -0.000275  -0.000289  -0.000028   0.001655  -0.000250
    20  H   -0.000275   0.498309  -0.054389  -0.017122  -0.000011   0.000035
    21  H   -0.000289  -0.054389   0.499480  -0.017415  -0.000017  -0.000031
    22  H   -0.000028  -0.017122  -0.017415   0.468737   0.000008  -0.000017
    23  H    0.001655  -0.000011  -0.000017   0.000008   0.457944  -0.022472
    24  H   -0.000250   0.000035  -0.000031  -0.000017  -0.022472   0.578005
    25  H   -0.001156  -0.000034   0.000047  -0.000022  -0.019963  -0.053639
              25
     1  C   -0.000466
     2  C    0.000471
     3  N    0.000208
     4  C    0.000520
     5  C   -0.004908
     6  C    0.001322
     7  C   -0.013950
     8  C   -0.005764
     9  C   -0.021975
    10  C    0.024385
    11  C   -0.000137
    12  O   -0.033158
    13  C    0.408062
    14  H   -0.000019
    15  H    0.000014
    16  H    0.000132
    17  H    0.001343
    18  H   -0.011510
    19  H   -0.001156
    20  H   -0.000034
    21  H    0.000047
    22  H   -0.000022
    23  H   -0.019963
    24  H   -0.053639
    25  H    0.569728
 Mulliken charges:
               1
     1  C   -0.561889
     2  C    0.281572
     3  N    0.218504
     4  C   -0.049543
     5  C    0.633716
     6  C    0.214400
     7  C   -0.057103
     8  C    0.323556
     9  C   -0.909171
    10  C   -0.775844
    11  C   -0.339999
    12  O   -0.163532
    13  C   -0.342543
    14  H    0.239808
    15  H    0.241930
    16  H    0.221537
    17  H    0.186713
    18  H    0.244263
    19  H    0.217057
    20  H    0.223896
    21  H    0.223820
    22  H    0.194025
    23  H    0.215491
    24  H    0.158868
    25  H    0.160471
 Sum of Mulliken charges =   1.00000
 Mulliken charges with hydrogens summed into heavy atoms:
               1
     1  C   -0.322082
     2  C    0.523503
     3  N    0.218504
     4  C   -0.049543
     5  C    0.633716
     6  C    0.435936
     7  C    0.129610
     8  C    0.567819
     9  C   -0.909171
    10  C   -0.558787
    11  C    0.301742
    12  O   -0.163532
    13  C    0.192286
 Electronic spatial extent (au):  <R**2>=           2558.5282
 Charge=              1.0000 electrons
 Dipole moment (field-independent basis, Debye):
    X=             -4.8355    Y=              2.1066    Z=              0.0729  Tot=              5.2750
 Quadrupole moment (field-independent basis, Debye-Ang):
   XX=            -30.3134   YY=            -53.5170   ZZ=            -76.2051
   XY=              2.2212   XZ=              0.1391   YZ=             -0.0487
 Traceless Quadrupole moment (field-independent basis, Debye-Ang):
   XX=             23.0318   YY=             -0.1718   ZZ=            -22.8600
   XY=              2.2212   XZ=              0.1391   YZ=             -0.0487
 Octapole moment (field-independent basis, Debye-Ang**2):
  XXX=             -8.5754  YYY=             -0.0432  ZZZ=              0.1209  XYY=            -29.8132
  XXY=             28.5023  XXZ=              1.4790  XZZ=              3.3753  YZZ=              4.3590
  YYZ=              0.0412  XYZ=             -0.0736
 Hexadecapole moment (field-independent basis, Debye-Ang**3):
 XXXX=          -1758.8366 YYYY=           -640.0252 ZZZZ=            -93.0877 XXXY=             25.1185
 XXXZ=              3.2325 YYYX=            -18.0301 YYYZ=             -0.2720 ZZZX=              0.3466
 ZZZY=              0.1589 XXYY=           -447.6782 XXZZ=           -440.0592 YYZZ=           -148.6221
 XXYZ=             -0.7487 YYXZ=             -0.5523 ZZXY=             -8.7934
 N-N= 7.748874600217D+02 E-N=-2.829210265541D+03  KE= 5.550780176787D+02

 **********************************************************************

            Electrostatic Properties Using The SCF Density

 **********************************************************************

       Atomic Center    1 is at  -2.557822 -1.641385  0.010048
       Atomic Center    2 is at  -2.927986 -0.354427  0.010485
       Atomic Center    3 is at  -2.092438  0.652347  0.003299
       Atomic Center    4 is at  -0.807837  0.371994 -0.005325
       Atomic Center    5 is at  -0.364954 -0.903452 -0.005978
       Atomic Center    6 is at  -1.248401 -1.917101  0.001949
       Atomic Center    7 is at   0.133518  1.335143 -0.012470
       Atomic Center    8 is at   1.446134  1.053580 -0.017849
       Atomic Center    9 is at   1.902592 -0.212517 -0.020094
       Atomic Center   10 is at   0.954084 -1.167931 -0.011951
       Atomic Center   11 is at  -2.636980  2.078122  0.004871
       Atomic Center   12 is at   3.224599 -0.590104 -0.014309
       Atomic Center   13 is at   4.216260  0.408831  0.035099
       Atomic Center   14 is at  -3.307592 -2.449389  0.016608
       Atomic Center   15 is at  -4.007726 -0.130807  0.017495
       Atomic Center   16 is at  -0.925573 -2.971788  0.002333
       Atomic Center   17 is at  -0.138815  2.402942 -0.011106
       Atomic Center   18 is at   2.145173  1.905239 -0.018726
       Atomic Center   19 is at   1.300988 -2.216427 -0.007834
       Atomic Center   20 is at  -2.297170  2.624828  0.913808
       Atomic Center   21 is at  -2.311690  2.620999 -0.911641
       Atomic Center   22 is at  -3.749321  2.106326  0.013882
       Atomic Center   23 is at   5.207221 -0.097838  0.048944
       Atomic Center   24 is at   4.165860  1.048865 -0.873816
       Atomic Center   25 is at   4.117276  1.006330  0.968723
 -----------------------------------------------------------------

              Electrostatic Properties (Atomic Units)

 -----------------------------------------------------------------
    Center     Electric         -------- Electric Field --------
               Potential          X             Y             Z
 -----------------------------------------------------------------
    1 Atom    -14.612116     -0.006631     -0.014152      0.000073
    2 Atom    -14.555634     -0.021833     -0.003393      0.000148
    3 Atom    -18.132961     -0.011065      0.013341      0.000064
    4 Atom    -14.575096      0.012914      0.004826     -0.000114
    5 Atom    -14.615493      0.003968     -0.005709     -0.000065
    6 Atom    -14.600996      0.000105     -0.015454      0.000037
    7 Atom    -14.622623      0.001338      0.015038     -0.000026
    8 Atom    -14.624919      0.007212      0.013407     -0.000039
    9 Atom    -14.573401      0.000993     -0.003776      0.000216
   10 Atom    -14.636225      0.010800     -0.013901      0.000032
   11 Atom    -14.554765     -0.003452      0.011172      0.000001
   12 Atom    -22.207477      0.013408     -0.046431     -0.001140
   13 Atom    -14.602480      0.012815      0.011548      0.000568
   14 Atom     -0.934838     -0.005925     -0.001154      0.000032
   15 Atom     -0.914919     -0.004869      0.006823      0.000027
   16 Atom     -0.935160      0.005822     -0.005087     -0.000051
   17 Atom     -0.944887     -0.003007      0.004695     -0.000012
   18 Atom     -0.951890      0.004500      0.004896     -0.000109
   19 Atom     -0.958766      0.000130     -0.006366     -0.000006
   20 Atom     -0.929629      0.004383     -0.001221      0.001968
   21 Atom     -0.929652      0.004342     -0.001204     -0.002035
   22 Atom     -0.925416     -0.001616     -0.010314      0.000018
   23 Atom     -0.992536      0.000104     -0.004013     -0.000108
   24 Atom     -0.992504      0.001297      0.006090     -0.003108
   25 Atom     -0.992138      0.001001      0.005862      0.003448
 -----------------------------------------------------------------
 -----------------------------------------------------
    Center         ---- Electric Field Gradient ----
                     XX            YY            ZZ
 -----------------------------------------------------
    1 Atom     -500.756434   -500.838567   -501.261162
    2 Atom     -500.972279   -500.911517   -501.461158
    3 Atom     -812.505508   -812.634338   -812.114449
    4 Atom     -500.999528   -500.612253   -501.121559
    5 Atom     -500.860040   -500.937140   -501.391124
    6 Atom     -501.054340   -501.166267   -501.904896
    7 Atom     -500.761107   -500.853863   -501.212117
    8 Atom     -500.889520   -500.911186   -501.442017
    9 Atom     -501.113574   -500.584669   -501.223485
   10 Atom     -500.873739   -500.911263   -501.303366
   11 Atom     -500.207404   -500.735810   -500.128742
   12 Atom    -1238.434504  -1236.313687  -1235.047286
   13 Atom     -500.488970   -500.475022   -500.177719
   14 Atom       -1.828379     -1.853257     -1.615317
   15 Atom       -2.038264     -1.683862     -1.635957
   16 Atom       -1.686859     -2.015697     -1.635761
   17 Atom       -1.700473     -2.048794     -1.641306
   18 Atom       -1.824665     -1.903643     -1.637885
   19 Atom       -1.683667     -2.011142     -1.621232
   20 Atom       -1.670829     -1.730129     -1.887807
   21 Atom       -1.667446     -1.728840     -1.892345
   22 Atom       -2.019500     -1.646440     -1.617851
   23 Atom       -1.963650     -1.743088     -1.642700
   24 Atom       -1.684034     -1.807557     -1.932686
   25 Atom       -1.686671     -1.789722     -1.946231
 -----------------------------------------------------
 -----------------------------------------------------
    Center         ---- Electric Field Gradient ----
                     XY            XZ            YZ
 -----------------------------------------------------
    1 Atom       -0.019429     -0.003168     -0.000663
    2 Atom       -0.185623     -0.003131      0.000443
    3 Atom        0.068413      0.002768      0.000181
    4 Atom        0.110857     -0.000747     -0.001766
    5 Atom        0.019256     -0.003566     -0.001181
    6 Atom        0.015661     -0.005665     -0.001857
    7 Atom       -0.009973     -0.002277     -0.000388
    8 Atom       -0.023407     -0.001775      0.000763
    9 Atom        0.156634      0.001104     -0.000975
   10 Atom        0.031439      0.000606      0.000219
   11 Atom        0.263594      0.000094     -0.000883
   12 Atom       -0.405768     -0.073077     -0.061674
   13 Atom       -0.365335     -0.017733     -0.017357
   14 Atom       -0.200580      0.001809      0.001793
   15 Atom        0.083366      0.002618     -0.000501
   16 Atom        0.115075      0.000043      0.000140
   17 Atom        0.100996      0.000311     -0.000507
   18 Atom       -0.198326      0.000254      0.000282
   19 Atom        0.113059     -0.000298      0.001636
   20 Atom       -0.051196     -0.105674     -0.151503
   21 Atom       -0.048339      0.102342      0.151618
   22 Atom       -0.002654      0.003266      0.000073
   23 Atom        0.153016     -0.004770      0.001595
   24 Atom        0.003074     -0.022351      0.187763
   25 Atom        0.011245      0.036229     -0.180707
 -----------------------------------------------------
 -----------------------------------------------------
    Center         ---- Electric Field Gradient ----
                   ----       Eigenvalues       ----
 -----------------------------------------------------
    1 Atom     -501.261183   -500.842927   -500.752053
    2 Atom     -501.461179   -501.129977   -500.753797
    3 Atom     -812.663891   -812.475976   -812.114429
    4 Atom     -501.121567   -501.029015   -500.582759
    5 Atom     -501.391150   -500.941681   -500.855472
    6 Atom     -501.904938   -501.168416   -501.052149
    7 Atom     -501.212129   -500.854922   -500.760036
    8 Atom     -501.442024   -500.926145   -500.874554
    9 Atom     -501.223512   -501.156454   -500.541762
   10 Atom     -501.303367   -500.929113   -500.855888
   11 Atom     -500.844817   -500.128743   -500.098396
   12 Atom    -1238.511480  -1236.240580  -1235.043418
   13 Atom     -500.848316   -500.176801   -500.116594
   14 Atom       -2.041798     -1.639853     -1.615302
   15 Atom       -2.056912     -1.665231     -1.635940
   16 Atom       -2.051967     -1.650590     -1.635761
   17 Atom       -2.075960     -1.673309     -1.641304
   18 Atom       -2.066373     -1.661935     -1.637885
   19 Atom       -2.046389     -1.648428     -1.621224
   20 Atom       -2.019038     -1.645851     -1.623876
   21 Atom       -2.018980     -1.645817     -1.623834
   22 Atom       -2.019546     -1.646421     -1.617825
   23 Atom       -2.042046     -1.664779     -1.642612
   24 Atom       -2.069066     -1.689466     -1.665744
   25 Atom       -2.068384     -1.689196     -1.665044
 -----------------------------------------------------
 -----------------------------------------------------
    Center         ---- Electric Field Gradient ----
                       ( tensor representation )
                   3XX-RR        3YY-RR        3ZZ-RR
 -----------------------------------------------------
    1 Atom        0.195620      0.113487     -0.309107
    2 Atom        0.142706      0.203468     -0.346173
    3 Atom       -0.087410     -0.216240      0.303649
    4 Atom       -0.088415      0.298860     -0.210446
    5 Atom        0.202728      0.125628     -0.328356
    6 Atom        0.320828      0.208901     -0.529729
    7 Atom        0.181255      0.088499     -0.269754
    8 Atom        0.191388      0.169722     -0.361110
    9 Atom       -0.139664      0.389240     -0.249576
   10 Atom        0.155717      0.118193     -0.273910
   11 Atom        0.149914     -0.378491      0.228576
   12 Atom       -1.836012      0.284805      1.551207
   13 Atom       -0.108400     -0.094452      0.202851
   14 Atom       -0.062728     -0.087606      0.150334
   15 Atom       -0.252237      0.102166      0.150071
   16 Atom        0.092580     -0.236258      0.143678
   17 Atom        0.096384     -0.251936      0.155552
   18 Atom       -0.035934     -0.114912      0.150846
   19 Atom        0.088347     -0.239128      0.150782
   20 Atom        0.092093      0.032792     -0.124885
   21 Atom        0.095431      0.034037     -0.129468
   22 Atom       -0.258237      0.114824      0.143413
   23 Atom       -0.180505      0.040058      0.140446
   24 Atom        0.124059      0.000535     -0.124594
   25 Atom        0.120870      0.017819     -0.138689
 -----------------------------------------------------
 -----------------------------------------------------
    Center         ---- Electric Field Gradient ----
                       ( tensor representation )
                   ----       Eigenvalues       ----
 -----------------------------------------------------
    1 Atom       -0.309129      0.109127      0.200001
    2 Atom       -0.346195     -0.014993      0.361187
    3 Atom       -0.245792     -0.057878      0.303670
    4 Atom       -0.210453     -0.117901      0.328354
    5 Atom       -0.328382      0.121087      0.207296
    6 Atom       -0.529771      0.206752      0.323018
    7 Atom       -0.269766      0.087440      0.182326
    8 Atom       -0.361116      0.154763      0.206354
    9 Atom       -0.249602     -0.182545      0.432147
   10 Atom       -0.273911      0.100343      0.173568
   11 Atom       -0.487498      0.228575      0.258922
   12 Atom       -1.912987      0.357913      1.555075
   13 Atom       -0.467746      0.203769      0.263976
   14 Atom       -0.276147      0.125798      0.150349
   15 Atom       -0.270884      0.120797      0.150088
   16 Atom       -0.272527      0.128849      0.143678
   17 Atom       -0.279102      0.123549      0.155553
   18 Atom       -0.277643      0.126796      0.150846
   19 Atom       -0.274376      0.123586      0.150790
   20 Atom       -0.256116      0.117070      0.139046
   21 Atom       -0.256103      0.117060      0.139043
   22 Atom       -0.258282      0.114843      0.143439
   23 Atom       -0.258900      0.118367      0.140534
   24 Atom       -0.260974      0.118626      0.142348
   25 Atom       -0.260842      0.118345      0.142497
 -----------------------------------------------------
 Calling FoFJK, ICntrl=      2127 FMM=F ISym2X=0 I1Cent= 0 IOpClX= 0 NMat=1 NMatS=1 NMatT=0.
 ***** Axes restored to original set *****
 -------------------------------------------------------------------
 Center     Atomic                   Forces (Hartrees/Bohr)
 Number     Number              X              Y              Z
 -------------------------------------------------------------------
      1        6           0.042908642    0.028695504    0.030457089
      2        6          -0.035172924    0.073402115    0.003610121
      3        7          -0.043632087    0.056204367   -0.005758173
      4        6          -0.031566909   -0.016016767   -0.020733388
      5        6           0.024106742   -0.012197654    0.009013042
      6        6           0.062879440    0.009878281    0.035053192
      7        6          -0.066037901   -0.002554354   -0.034674879
      8        6          -0.056488812   -0.033787406   -0.038943614
      9        6           0.037075974   -0.050549352    0.002164655
     10        6           0.064047262   -0.050970715    0.018146240
     11        6          -0.006788222   -0.000170119   -0.003519099
     12        8           0.002884515    0.028205660    0.010850784
     13        6          -0.010576661   -0.018181207   -0.011448844
     14        1          -0.010159608   -0.006528883   -0.007118964
     15        1          -0.001317894   -0.012851828   -0.004469883
     16        1          -0.010959707   -0.000862368   -0.005837447
     17        1           0.011563069   -0.000689055    0.005770266
     18        1           0.007359626    0.006799210    0.005964315
     19        1          -0.010381947    0.005353418   -0.003636449
     20        1           0.003404055   -0.002631137    0.015305557
     21        1           0.014270009    0.003619756   -0.005964416
     22        1           0.012129389   -0.014843348    0.001880739
     23        1          -0.005769143    0.014771135    0.001887942
     24        1           0.008193428    0.001066788   -0.008427049
     25        1          -0.001970336   -0.005162038    0.010428264
 -------------------------------------------------------------------
 Cartesian Forces:  Max     0.073402115 RMS     0.025674358

 GradGradGradGradGradGradGradGradGradGradGradGradGradGradGradGradGradGrad
 Berny optimization.
 FormGI is forming the generalized inverse of G from B-inverse, IUseBI=4.
 Internal  Forces:  Max     0.083584378 RMS     0.020069837
 Search for a local minimum.
 Step number   1 out of a maximum of  134
 All quantities printed in internal units (Hartrees-Bohrs-Radians)
 Mixed Optimization -- RFO/linear search
 Second derivative matrix not updated -- first step.
 ITU=  0
     Eigenvalues ---    0.00230   0.01580   0.01772   0.02024   0.02649
     Eigenvalues ---    0.02787   0.02794   0.02799   0.02803   0.02806
     Eigenvalues ---    0.02817   0.02822   0.02830   0.02857   0.02861
     Eigenvalues ---    0.02895   0.02898   0.02902   0.06881   0.06921
     Eigenvalues ---    0.10212   0.10667   0.16000   0.16000   0.16000
     Eigenvalues ---    0.16000   0.16000   0.16000   0.16000   0.16000
     Eigenvalues ---    0.16000   0.16000   0.16000   0.16000   0.22088
     Eigenvalues ---    0.22435   0.23367   0.23650   0.24613   0.24936
     Eigenvalues ---    0.24997   0.25000   0.25000   0.29775   0.32202
     Eigenvalues ---    0.32202   0.32278   0.32299   0.32306   0.32312
     Eigenvalues ---    0.33200   0.33354   0.33388   0.33429   0.33464
     Eigenvalues ---    0.33483   0.44250   0.46067   0.49400   0.50049
     Eigenvalues ---    0.52238   0.53164   0.55758   0.55933   0.56024
     Eigenvalues ---    0.56433   0.57106   0.61544   0.63560
 RFO step:  Lambda=-8.39351621D-02 EMin= 2.30000000D-03
 Linear search not attempted -- first point.
 Maximum step size (   0.300) exceeded in Quadratic search.
    -- Step size scaled by   0.771
 Iteration  1 RMS(Cart)=  0.04926243 RMS(Int)=  0.00038190
 Iteration  2 RMS(Cart)=  0.00058384 RMS(Int)=  0.00009777
 Iteration  3 RMS(Cart)=  0.00000021 RMS(Int)=  0.00009777
 Variable       Old X    -DE/DX   Delta X   Delta X   Delta X     New X
                                 (Linear)    (Quad)   (Total)
    R1        2.53060   0.05917   0.00000   0.06684   0.06661   2.59720
    R2        2.52875   0.05257   0.00000   0.05986   0.05971   2.58847
    R3        2.08305  -0.01351   0.00000  -0.02491  -0.02491   2.05814
    R4        2.47243   0.03871   0.00000   0.03974   0.03965   2.51208
    R5        2.08375  -0.01223   0.00000  -0.02256  -0.02256   2.06120
    R6        2.48474   0.07541   0.00000   0.08257   0.08272   2.56745
    R7        2.88415  -0.02748   0.00000  -0.05549  -0.05549   2.82866
    R8        2.55142   0.08358   0.00000   0.10597   0.10626   2.65768
    R9        2.54507   0.06549   0.00000   0.07953   0.07954   2.62461
   R10        2.54098   0.07401   0.00000   0.08938   0.08946   2.63044
   R11        2.54226   0.06579   0.00000   0.07955   0.07960   2.62186
   R12        2.08434  -0.01171   0.00000  -0.02162  -0.02162   2.06272
   R13        2.53693   0.04309   0.00000   0.05022   0.05017   2.58710
   R14        2.08244  -0.01275   0.00000  -0.02348  -0.02348   2.05897
   R15        2.54332   0.07268   0.00000   0.08543   0.08538   2.62870
   R16        2.08211  -0.01164   0.00000  -0.02142  -0.02142   2.06069
   R17        2.54416   0.04283   0.00000   0.05065   0.05065   2.59480
   R18        2.59816  -0.02211   0.00000  -0.02917  -0.02917   2.56899
   R19        2.08702  -0.01205   0.00000  -0.02233  -0.02233   2.06469
   R20        2.10475  -0.01510   0.00000  -0.02867  -0.02867   2.07608
   R21        2.10475  -0.01509   0.00000  -0.02866  -0.02866   2.07609
   R22        2.10277  -0.01588   0.00000  -0.03007  -0.03007   2.07270
   R23        2.66157   0.01427   0.00000   0.02089   0.02089   2.68246
   R24        2.10338  -0.01557   0.00000  -0.02951  -0.02951   2.07387
   R25        2.10288  -0.01112   0.00000  -0.02107  -0.02107   2.08181
   R26        2.10300  -0.01117   0.00000  -0.02116  -0.02116   2.08184
    A1        2.05839   0.00789   0.00000   0.01278   0.01242   2.07081
    A2        2.11348  -0.00782   0.00000  -0.01862  -0.01844   2.09504
    A3        2.11132  -0.00007   0.00000   0.00584   0.00602   2.11734
    A4        2.16879  -0.00748   0.00000  -0.02472  -0.02500   2.14379
    A5        2.05507   0.01011   0.00000   0.03249   0.03263   2.08771
    A6        2.05932  -0.00263   0.00000  -0.00777  -0.00763   2.05169
    A7        2.04867   0.01907   0.00000   0.04621   0.04629   2.09496
    A8        2.08402  -0.00695   0.00000  -0.01714  -0.01718   2.06685
    A9        2.15049  -0.01212   0.00000  -0.02907  -0.02911   2.12138
   A10        2.11987  -0.01568   0.00000  -0.03100  -0.03065   2.08922
   A11        2.12990   0.00769   0.00000   0.00990   0.00964   2.13954
   A12        2.03342   0.00799   0.00000   0.02110   0.02102   2.05443
   A13        2.09049  -0.00844   0.00000  -0.01513  -0.01487   2.07562
   A14        2.10289  -0.00652   0.00000  -0.01204  -0.01204   2.09085
   A15        2.08980   0.01495   0.00000   0.02717   0.02691   2.11671
   A16        2.08016   0.00464   0.00000   0.01186   0.01182   2.09198
   A17        2.07535   0.00207   0.00000   0.00796   0.00798   2.08333
   A18        2.12768  -0.00671   0.00000  -0.01982  -0.01980   2.10788
   A19        2.13346  -0.00713   0.00000  -0.01579  -0.01577   2.11768
   A20        2.11790   0.00125   0.00000   0.00057   0.00056   2.11847
   A21        2.03182   0.00588   0.00000   0.01522   0.01521   2.04703
   A22        2.12812  -0.00221   0.00000  -0.00855  -0.00859   2.11953
   A23        2.04679   0.00181   0.00000   0.00650   0.00652   2.05331
   A24        2.10828   0.00040   0.00000   0.00205   0.00207   2.11034
   A25        2.01378   0.01802   0.00000   0.03876   0.03876   2.05254
   A26        2.19501  -0.00579   0.00000  -0.01193  -0.01193   2.18308
   A27        2.07431  -0.01222   0.00000  -0.02678  -0.02679   2.04753
   A28        2.15470  -0.01016   0.00000  -0.02347  -0.02336   2.13133
   A29        2.08817   0.00286   0.00000   0.00473   0.00467   2.09285
   A30        2.04031   0.00730   0.00000   0.01875   0.01869   2.05900
   A31        1.92894  -0.00278   0.00000  -0.00889  -0.00904   1.91990
   A32        1.92867  -0.00273   0.00000  -0.00874  -0.00889   1.91978
   A33        1.96097  -0.01383   0.00000  -0.04350  -0.04374   1.91723
   A34        1.92109   0.00268   0.00000   0.00808   0.00802   1.92911
   A35        1.86078   0.00879   0.00000   0.02798   0.02774   1.88852
   A36        1.86112   0.00877   0.00000   0.02790   0.02766   1.88878
   A37        2.07416   0.00214   0.00000   0.00495   0.00495   2.07911
   A38        1.88014  -0.00681   0.00000  -0.02181  -0.02175   1.85838
   A39        1.92558   0.00505   0.00000   0.01612   0.01609   1.94168
   A40        1.92581   0.00472   0.00000   0.01506   0.01503   1.94084
   A41        1.88841   0.00063   0.00000   0.00171   0.00178   1.89018
   A42        1.88931   0.00072   0.00000   0.00194   0.00200   1.89131
   A43        1.95239  -0.00461   0.00000  -0.01403  -0.01412   1.93827
    D1        0.00019   0.00000   0.00000  -0.00001  -0.00001   0.00018
    D2       -3.14126  -0.00001   0.00000  -0.00007  -0.00007  -3.14133
    D3        3.14131   0.00002   0.00000   0.00010   0.00010   3.14142
    D4       -0.00014   0.00001   0.00000   0.00005   0.00005  -0.00009
    D5       -0.00053   0.00001   0.00000   0.00008   0.00008  -0.00046
    D6        3.14069   0.00002   0.00000   0.00016   0.00016   3.14086
    D7        3.14153   0.00000   0.00000  -0.00003  -0.00004   3.14149
    D8       -0.00043   0.00000   0.00000   0.00005   0.00005  -0.00038
    D9        0.00041  -0.00001   0.00000  -0.00009  -0.00009   0.00031
   D10       -3.14145  -0.00002   0.00000  -0.00011  -0.00011  -3.14156
   D11       -3.14133   0.00000   0.00000  -0.00003  -0.00003  -3.14137
   D12        0.00000  -0.00001   0.00000  -0.00005  -0.00005  -0.00005
   D13       -0.00066   0.00002   0.00000   0.00015   0.00015  -0.00051
   D14       -3.14096  -0.00004   0.00000  -0.00024  -0.00023  -3.14119
   D15        3.14121   0.00003   0.00000   0.00016   0.00016   3.14137
   D16        0.00091  -0.00004   0.00000  -0.00022  -0.00022   0.00069
   D17        2.07751   0.00017   0.00000   0.00082   0.00090   2.07841
   D18       -2.07487  -0.00017   0.00000  -0.00089  -0.00097  -2.07584
   D19        0.00145   0.00000   0.00000  -0.00004  -0.00004   0.00141
   D20       -1.06436   0.00017   0.00000   0.00082   0.00089  -1.06346
   D21        1.06644  -0.00018   0.00000  -0.00090  -0.00097   1.06547
   D22       -3.14043  -0.00001   0.00000  -0.00004  -0.00004  -3.14047
   D23        0.00032  -0.00002   0.00000  -0.00010  -0.00010   0.00022
   D24       -3.13907  -0.00006   0.00000  -0.00034  -0.00033  -3.13940
   D25        3.14069   0.00005   0.00000   0.00026   0.00025   3.14095
   D26        0.00130   0.00000   0.00000   0.00002   0.00002   0.00133
   D27        3.13857   0.00007   0.00000   0.00048   0.00049   3.13905
   D28        0.00026  -0.00005   0.00000  -0.00027  -0.00026   0.00000
   D29       -0.00179   0.00002   0.00000   0.00015   0.00015  -0.00164
   D30       -3.14010  -0.00009   0.00000  -0.00060  -0.00060  -3.14070
   D31        0.00029  -0.00001   0.00000  -0.00003  -0.00003   0.00026
   D32       -3.14092  -0.00002   0.00000  -0.00013  -0.00012  -3.14105
   D33        3.13970   0.00001   0.00000   0.00015   0.00015   3.13985
   D34       -0.00152   0.00000   0.00000   0.00006   0.00006  -0.00146
   D35       -0.00226   0.00007   0.00000   0.00043   0.00042  -0.00184
   D36        3.13683   0.00012   0.00000   0.00081   0.00080   3.13763
   D37        3.14153   0.00005   0.00000   0.00025   0.00024  -3.14141
   D38       -0.00256   0.00010   0.00000   0.00063   0.00062  -0.00194
   D39        0.00321  -0.00013   0.00000  -0.00079  -0.00078   0.00243
   D40       -3.13668  -0.00020   0.00000  -0.00131  -0.00131  -3.13799
   D41       -3.14152  -0.00002   0.00000  -0.00009  -0.00008   3.14159
   D42        0.00178  -0.00010   0.00000  -0.00061  -0.00061   0.00117
   D43       -0.00380   0.00011   0.00000   0.00100   0.00102  -0.00278
   D44       -3.13152  -0.00037   0.00000  -0.00268  -0.00270  -3.13422
   D45        3.13603   0.00019   0.00000   0.00155   0.00157   3.13760
   D46        0.00831  -0.00029   0.00000  -0.00213  -0.00215   0.00616
   D47        0.00339  -0.00011   0.00000  -0.00088  -0.00089   0.00250
   D48       -3.13577  -0.00016   0.00000  -0.00123  -0.00125  -3.13701
   D49        3.13213   0.00036   0.00000   0.00261   0.00261   3.13474
   D50       -0.00702   0.00032   0.00000   0.00225   0.00226  -0.00477
   D51        0.03265  -0.00001   0.00000  -0.00061  -0.00065   0.03200
   D52       -3.09463  -0.00073   0.00000  -0.00487  -0.00483  -3.09946
   D53        3.12522  -0.00004   0.00000  -0.00025  -0.00025   3.12498
   D54       -1.10010  -0.00047   0.00000  -0.00204  -0.00216  -1.10226
   D55        1.06615   0.00046   0.00000   0.00186   0.00198   1.06812
         Item               Value     Threshold  Converged?
 Maximum Force            0.083584     0.000450     NO 
 RMS     Force            0.020070     0.000300     NO 
 Maximum Displacement     0.151341     0.001800     NO 
 RMS     Displacement     0.049101     0.001200     NO 
 Predicted change in Energy=-4.353667D-02
 GradGradGradGradGradGradGradGradGradGradGradGradGradGradGradGradGradGrad

                          Input orientation:                          
 ---------------------------------------------------------------------
 Center     Atomic      Atomic             Coordinates (Angstroms)
 Number     Number       Type             X           Y           Z
 ---------------------------------------------------------------------
      1          6           0        1.382777    3.146712    1.522692
      2          6           0        0.159470    3.484546    0.995140
      3          7           0       -0.608917    2.617074    0.343828
      4          6           0       -0.194855    1.333938    0.176471
      5          6           0        1.048634    0.929769    0.694442
      6          6           0        1.830818    1.861177    1.371382
      7          6           0       -0.954186    0.384461   -0.495025
      8          6           0       -0.510506   -0.901216   -0.651369
      9          6           0        0.717198   -1.312052   -0.142479
     10          6           0        1.474546   -0.379412    0.522380
     11          6           0       -1.924208    3.091539   -0.190485
     12          8           0        1.232713   -2.564332   -0.261405
     13          6           0        0.505692   -3.544795   -0.986041
     14          1           0        1.975216    3.894497    2.048065
     15          1           0       -0.212546    4.503850    1.106220
     16          1           0        2.801062    1.580284    1.785145
     17          1           0       -1.925881    0.632786   -0.920792
     18          1           0       -1.153882   -1.596319   -1.191762
     19          1           0        2.441899   -0.694456    0.920779
     20          1           0       -1.947334    2.982206   -1.283403
     21          1           0       -2.743916    2.523965    0.270934
     22          1           0       -2.063354    4.152416    0.050773
     23          1           0        1.111485   -4.459666   -0.965736
     24          1           0       -0.462147   -3.760076   -0.505873
     25          1           0        0.367875   -3.243020   -2.036562
 ---------------------------------------------------------------------
                    Distance matrix (angstroms):
                    1          2          3          4          5
     1  C    0.000000
     2  C    1.374381   0.000000
     3  N    2.374254   1.329336   0.000000
     4  C    2.754521   2.328279   1.358637   0.000000
     5  C    2.390081   2.721750   2.391110   1.406382   0.000000
     6  C    1.369758   2.360147   2.753100   2.410217   1.391970
     7  C    4.142778   3.615432   2.409864   1.388883   2.392379
     8  C    4.969586   4.732312   3.657659   2.404343   2.755836
     9  C    4.805868   4.961108   4.175297   2.816883   2.415791
    10  C    3.666414   4.108905   3.653988   2.417048   1.387429
    11  C    3.724804   2.429377   1.496862   2.492886   3.780758
    12  O    5.985110   6.270541   5.532168   4.174469   3.627157
    13  C    7.199950   7.311401   6.401526   5.064013   4.810460
    14  H    1.089120   2.138608   3.348728   3.842985   3.388283
    15  H    2.135492   1.090740   2.073228   3.303496   3.812373
    16  H    2.129345   3.350870   3.844514   3.409404   2.164211
    17  H    4.820545   4.018958   2.696490   2.166115   3.397782
    18  H    6.024885   5.685299   4.517488   3.373158   3.845772
    19  H    4.029716   4.762255   4.539447   3.408936   2.151865
    20  H    4.357851   3.143680   2.138355   2.814108   4.135238
    21  H    4.357099   3.142744   2.138271   2.814747   4.135729
    22  H    3.879923   2.505758   2.135074   3.383919   4.525951
    23  H    8.007675   8.237832   7.399662   6.047893   5.639694
    24  H    7.431187   7.424554   6.435182   5.146456   5.071278
    25  H    7.384239   7.382060   6.400085   5.114951   5.033287
                    6          7          8          9         10
     6  C    0.000000
     7  C    3.663388   0.000000
     8  C    4.147787   1.369036   0.000000
     9  C    3.687995   2.407482   1.391047   0.000000
    10  C    2.422389   2.741779   2.364403   1.373110   0.000000
    11  C    4.248934   2.891706   4.260641   5.135265   4.909909
    12  O    4.754877   3.678652   2.440663   1.359450   2.333812
    13  C    6.044661   4.220354   2.851871   2.396137   3.637810
    14  H    2.147822   5.231544   6.038594   5.786989   4.565597
    15  H    3.351025   4.481448   5.691453   6.020663   5.199365
    16  H    1.091546   4.553137   4.802179   4.052633   2.682280
    17  H    4.569004   1.089558   2.104528   3.372542   3.830170
    18  H    5.237597   2.109220   1.090470   2.163965   3.365677
    19  H    2.666031   3.834313   3.351283   2.118144   1.092587
    20  H    4.751739   2.890703   4.188664   5.180935   5.125485
    21  H    4.751681   2.892630   4.191733   5.183170   5.127207
    22  H    4.707267   3.965556   5.333248   6.134266   5.768588
    23  H    6.777360   5.287166   3.923295   3.277299   4.358300
    24  H    6.354546   4.173656   2.862968   2.741483   4.029513
    25  H    6.309288   4.157259   2.859084   2.727309   3.996644
                   11         12         13         14         15
    11  C    0.000000
    12  O    6.477658   0.000000
    13  C    7.111839   1.419494   0.000000
    14  H    4.567422   6.899379   8.167518   0.000000
    15  H    2.570184   7.342913   8.347101   2.458594   0.000000
    16  H    5.339960   4.881182   6.262159   2.471179   4.253235
    17  H    2.564921   4.542365   4.834148   5.888245   4.693552
    18  H    4.855097   2.738330   2.567696   7.101886   6.586265
    19  H    5.884858   2.521136   3.938184   4.748374   5.839764
    20  H    1.098616   6.474663   6.979076   5.226600   3.321925
    21  H    1.098622   6.479794   6.997841   5.225587   3.320464
    22  H    1.096825   7.488405   8.180588   4.512842   2.159389
    23  H    8.175399   2.025603   1.097446   8.923064   9.294658
    24  H    7.012968   2.088568   1.101644   8.429461   8.423396
    25  H    6.984861   2.088000   1.101660   8.379252   8.380212
                   16         17         18         19         20
    16  H    0.000000
    17  H    5.528458   0.000000
    18  H    5.881698   2.374514   0.000000
    19  H    2.459791   4.922445   4.266829   0.000000
    20  H    5.824829   2.377334   4.647672   6.135277   0.000000
    21  H    5.824959   2.380325   4.652357   6.137851   1.805682
    22  H    5.769441   3.653851   5.951385   6.674307   1.778448
    23  H    6.848578   5.929645   3.658105   4.416532   8.052251
    24  H    6.664589   4.648862   2.372927   4.457224   6.947568
    25  H    6.617410   4.639842   2.396051   4.420704   6.684376
                   21         22         23         24         25
    21  H    0.000000
    22  H    1.778620   0.000000
    23  H    8.072458   9.234763   0.000000
    24  H    6.730458   8.092048   1.782475   0.000000
    25  H    6.947366   8.059796   1.783214   1.816395   0.000000
 Stoichiometry    C11H12NO(1+)
 Framework group  C1[X(C11H12NO)]
 Deg. of freedom    69
 Full point group                 C1      NOp   1
[...]
    16  H   -0.001004  -0.014392   0.001788   0.472642  -0.000728   0.000797
    17  H    0.006516   0.000184   0.000741  -0.000728   0.520527  -0.019564
    18  H   -0.009107  -0.000109  -0.000166   0.000797  -0.019564   0.485357
    19  H    0.005318   0.002355  -0.000317  -0.008981   0.003179  -0.004233
    20  H   -0.000143  -0.000246   0.000252   0.000212  -0.005933   0.000256
    21  H   -0.000143  -0.000246   0.000258   0.000214  -0.005942   0.000255
    22  H    0.000093   0.002314  -0.000019  -0.000666   0.003922   0.000378
    23  H    0.401296   0.000008  -0.000005  -0.000142   0.000338   0.002082
    24  H    0.402704  -0.000009   0.000007   0.000043   0.001201  -0.011442
    25  H    0.402800  -0.000009   0.000007   0.000044   0.001205  -0.011475
              19         20         21         22         23         24
     1  C    0.010253  -0.007885  -0.007888   0.051968   0.000126  -0.000300
     2  C   -0.024006  -0.011424  -0.011417  -0.014961  -0.000238   0.000206
     3  N   -0.001130  -0.020894  -0.020920  -0.074600  -0.000072   0.000190
     4  C   -0.055981  -0.023196  -0.022927   0.031568  -0.005167   0.001580
     5  C   -0.037823   0.002600   0.002602  -0.004436   0.001604  -0.011544
     6  C   -0.077771  -0.002830  -0.002768   0.005523  -0.002735   0.000098
     7  C   -0.008230   0.020493   0.020362   0.002131  -0.006915  -0.003088
     8  C   -0.069050   0.000331   0.000234  -0.000321  -0.005254   0.009739
     9  C    0.026559  -0.002030  -0.002062  -0.001592   0.049200  -0.015898
    10  C    0.553265  -0.003120  -0.003149  -0.001283   0.000694   0.004726
    11  C   -0.002409   0.403834   0.403797   0.375204   0.000053  -0.000052
    12  O   -0.028962   0.000125   0.000126  -0.000053  -0.062718  -0.031116
    13  C    0.005318  -0.000143  -0.000143   0.000093   0.401296   0.402704
    14  H    0.002355  -0.000246  -0.000246   0.002314   0.000008  -0.000009
    15  H   -0.000317   0.000252   0.000258  -0.000019  -0.000005   0.000007
    16  H   -0.008981   0.000212   0.000214  -0.000666  -0.000142   0.000043
    17  H    0.003179  -0.005933  -0.005942   0.003922   0.000338   0.001201
    18  H   -0.004233   0.000256   0.000255   0.000378   0.002082  -0.011442
    19  H    0.498538  -0.000247  -0.000248  -0.000089   0.001343  -0.000569
    20  H   -0.000247   0.512348  -0.062679  -0.015933  -0.000015   0.000043
    21  H   -0.000248  -0.062679   0.512389  -0.015939  -0.000015  -0.000033
    22  H   -0.000089  -0.015933  -0.015939   0.485881   0.000007  -0.000017
    23  H    0.001343  -0.000015  -0.000015   0.000007   0.452607  -0.019360
    24  H   -0.000569   0.000043  -0.000033  -0.000017  -0.019360   0.559006
    25  H   -0.000573  -0.000033   0.000044  -0.000017  -0.019336  -0.054009
              25
     1  C   -0.000299
     2  C    0.000206
     3  N    0.000190
     4  C    0.001516
     5  C   -0.011500
     6  C    0.000103
     7  C   -0.003274
     8  C    0.009474
     9  C   -0.015742
    10  C    0.004949
    11  C   -0.000053
    12  O   -0.031066
    13  C    0.402800
    14  H   -0.000009
    15  H    0.000007
    16  H    0.000044
    17  H    0.001205
    18  H   -0.011475
    19  H   -0.000573
    20  H   -0.000033
    21  H    0.000044
    22  H   -0.000017
    23  H   -0.019336
    24  H   -0.054009
    25  H    0.559039
 Mulliken charges:
               1
     1  C   -0.550472
     2  C    0.233962
     3  N    0.225125
     4  C   -0.007953
     5  C    0.440276
     6  C    0.107664
     7  C   -0.060398
     8  C    0.161870
     9  C   -0.728094
    10  C   -0.564238
    11  C   -0.296716
    12  O   -0.138443
    13  C   -0.325532
    14  H    0.241837
    15  H    0.237972
    16  H    0.222597
    17  H    0.183327
    18  H    0.245941
    19  H    0.219809
    20  H    0.216113
    21  H    0.216096
    22  H    0.170938
    23  H    0.212615
    24  H    0.167895
    25  H    0.167810
 Sum of Mulliken charges =   1.00000
 Mulliken charges with hydrogens summed into heavy atoms:
               1
     1  C   -0.308635
     2  C    0.471934
     3  N    0.225125
     4  C   -0.007953
     5  C    0.440276
     6  C    0.330261
     7  C    0.122929
     8  C    0.407811
     9  C   -0.728094
    10  C   -0.344430
    11  C    0.306431
    12  O   -0.138443
    13  C    0.222788
 Electronic spatial extent (au):  <R**2>=           2658.0056
 Charge=              1.0000 electrons
 Dipole moment (field-independent basis, Debye):
    X=             -4.0336    Y=              2.1177    Z=              0.0012  Tot=              4.5557
 Quadrupole moment (field-independent basis, Debye-Ang):
   XX=            -26.6620   YY=            -53.5939   ZZ=            -77.4067
   XY=              2.8913   XZ=              0.0035   YZ=             -0.0012
 Traceless Quadrupole moment (field-independent basis, Debye-Ang):
   XX=             25.8922   YY=             -1.0397   ZZ=            -24.8525
   XY=              2.8913   XZ=              0.0035   YZ=             -0.0012
 Octapole moment (field-independent basis, Debye-Ang**2):
  XXX=              1.7400  YYY=             -0.8132  ZZZ=              0.0004  XYY=            -25.5941
  XXY=             26.6484  XXZ=              0.0254  XZZ=              4.7268  YZZ=              4.7106
  YYZ=             -0.0006  XYZ=             -0.0030
 Hexadecapole moment (field-independent basis, Debye-Ang**3):
 XXXX=          -1765.6517 YYYY=           -669.6497 ZZZZ=            -95.0671 XXXY=             38.0931
 XXXZ=              0.0751 YYYX=            -11.0344 YYYZ=             -0.0047 ZZZX=              0.0002
 ZZZY=              0.0023 XXYY=           -470.2079 XXZZ=           -458.3431 YYZZ=           -156.1886
 XXYZ=             -0.0199 YYXZ=             -0.0063 ZZXY=             -9.3473
 N-N= 7.572875413734D+02 E-N=-2.793256077665D+03  KE= 5.538898556130D+02

 **********************************************************************

            Electrostatic Properties Using The SCF Density

 **********************************************************************

       Atomic Center    1 is at  -2.683996 -1.641859  0.000126
       Atomic Center    2 is at  -3.053928 -0.296423  0.000125
       Atomic Center    3 is at  -2.146886  0.686151  0.000046
       Atomic Center    4 is at  -0.786688  0.411320 -0.000047
       Atomic Center    5 is at  -0.361469 -0.955935 -0.000052
       Atomic Center    6 is at  -1.348991 -1.970928  0.000040
       Atomic Center    7 is at   0.182412  1.430672 -0.000150
       Atomic Center    8 is at   1.523147  1.111783 -0.000239
       Atomic Center    9 is at   1.958455 -0.239630 -0.000200
       Atomic Center   10 is at   1.011928 -1.253112 -0.000125
       Atomic Center   11 is at  -2.613976  2.090329  0.000050
       Atomic Center   12 is at   3.243340 -0.615545 -0.000366
       Atomic Center   13 is at   4.288231  0.370301  0.000541
       Atomic Center   14 is at  -3.458438 -2.396639  0.000194
       Atomic Center   15 is at  -4.091599  0.007535  0.000187
       Atomic Center   16 is at  -1.038932 -3.009691  0.000039
       Atomic Center   17 is at  -0.102495  2.473007 -0.000198
       Atomic Center   18 is at   2.246698  1.915592 -0.000383
       Atomic Center   19 is at   1.344408 -2.283764 -0.000116
       Atomic Center   20 is at  -2.251339  2.598397  0.893256
       Atomic Center   21 is at  -2.251459  2.598364 -0.893224
       Atomic Center   22 is at  -3.700457  2.095478  0.000125
       Atomic Center   23 is at   5.215319 -0.196742  0.001196
       Atomic Center   24 is at   4.240204  0.990407 -0.898195
       Atomic Center   25 is at   4.238821  0.990245  0.899310
 -----------------------------------------------------------------

              Electrostatic Properties (Atomic Units)

 -----------------------------------------------------------------
    Center     Electric         -------- Electric Field --------
               Potential          X             Y             Z
 -----------------------------------------------------------------
    1 Atom    -14.601072     -0.001344     -0.004295      0.000000
    2 Atom    -14.547718     -0.009122     -0.008433      0.000001
    3 Atom    -18.133475     -0.000770      0.004926      0.000000
    4 Atom    -14.553632      0.010545     -0.001970     -0.000001
    5 Atom    -14.590060      0.001654     -0.001805      0.000000
    6 Atom    -14.589962      0.001288     -0.002241      0.000000
    7 Atom    -14.606526      0.001444      0.002250      0.000000
    8 Atom    -14.610786      0.001543      0.001122     -0.000001
    9 Atom    -14.557145     -0.011228      0.003039      0.000002
   10 Atom    -14.624478      0.001388     -0.002961      0.000001
   11 Atom    -14.571403     -0.003277      0.010028      0.000000
   12 Atom    -22.201175      0.017978     -0.044934     -0.000028
   13 Atom    -14.601717      0.009902      0.007939      0.000007
   14 Atom     -0.938637     -0.014110     -0.013913      0.000001
   15 Atom     -0.911631     -0.019088      0.005279      0.000001
   16 Atom     -0.937868      0.005563     -0.018790      0.000000
   17 Atom     -0.941286     -0.004798      0.018978     -0.000001
   18 Atom     -0.948919      0.012897      0.014791     -0.000002
   19 Atom     -0.957050      0.006128     -0.018668      0.000000
   20 Atom     -0.938179      0.005786      0.009144      0.015574
   21 Atom     -0.938179      0.005783      0.009143     -0.015575
   22 Atom     -0.935286     -0.018856      0.000528      0.000001
   23 Atom     -0.990315      0.016398     -0.010050      0.000010
   24 Atom     -0.986455     -0.000645      0.010167     -0.015359
   25 Atom     -0.986440     -0.000666      0.010162      0.015361
 -----------------------------------------------------------------
 -----------------------------------------------------
    Center         ---- Electric Field Gradient ----
                     XX            YY            ZZ
 -----------------------------------------------------
    1 Atom     -500.664634   -500.753277   -501.151169
    2 Atom     -500.914410   -500.876792   -501.375828
    3 Atom     -812.648459   -812.631628   -812.155546
    4 Atom     -500.843781   -500.444386   -500.839706
    5 Atom     -500.647113   -500.753778   -501.141974
    6 Atom     -500.931113   -500.961392   -501.664102
    7 Atom     -500.680706   -500.708958   -501.097902
    8 Atom     -500.746327   -500.797177   -501.257393
    9 Atom     -500.994229   -500.590906   -501.161811
   10 Atom     -500.763518   -500.718404   -501.094207
   11 Atom     -500.237174   -500.747957   -500.174297
   12 Atom    -1238.350879  -1236.257717  -1235.170805
   13 Atom     -500.625131   -500.528649   -500.222883
   14 Atom       -1.901771     -1.889251     -1.641677
   15 Atom       -2.094557     -1.723052     -1.653886
   16 Atom       -1.708427     -2.085303     -1.655141
   17 Atom       -1.724520     -2.116478     -1.660192
   18 Atom       -1.888577     -1.934422     -1.656667
   19 Atom       -1.705134     -2.080297     -1.637748
   20 Atom       -1.723793     -1.777238     -1.970010
   21 Atom       -1.723758     -1.777224     -1.970055
   22 Atom       -2.133341     -1.699443     -1.666516
   23 Atom       -2.024793     -1.820581     -1.678214
   24 Atom       -1.706097     -1.836993     -1.990989
   25 Atom       -1.706188     -1.836922     -1.991001
 -----------------------------------------------------
 -----------------------------------------------------
    Center         ---- Electric Field Gradient ----
                     XY            XZ            YZ
 -----------------------------------------------------
    1 Atom        0.027665     -0.000034     -0.000010
    2 Atom       -0.195891     -0.000028      0.000004
    3 Atom        0.028687      0.000037      0.000007
    4 Atom        0.109726     -0.000006     -0.000024
    5 Atom        0.012520     -0.000041     -0.000011
    6 Atom       -0.029094     -0.000053     -0.000014
    7 Atom       -0.050187     -0.000030     -0.000018
    8 Atom        0.022358     -0.000056      0.000006
    9 Atom        0.144425      0.000035     -0.000013
   10 Atom        0.007723      0.000002      0.000010
   11 Atom        0.225941      0.000001     -0.000004
   12 Atom       -0.453274     -0.000710     -0.001302
   13 Atom       -0.411722     -0.000374     -0.000369
   14 Atom       -0.228578      0.000022      0.000020
   15 Atom        0.122759      0.000027     -0.000007
   16 Atom        0.125025      0.000001      0.000000
   17 Atom        0.120933     -0.000003      0.000021
   18 Atom       -0.227841      0.000040      0.000047
   19 Atom        0.128980      0.000000      0.000005
   20 Atom       -0.062032     -0.128381     -0.168172
   21 Atom       -0.062004      0.128350      0.168172
   22 Atom       -0.004089      0.000032      0.000001
   23 Atom        0.194274     -0.000247      0.000134
   24 Atom        0.004189     -0.024614      0.208250
   25 Atom        0.004503      0.025059     -0.208219
 -----------------------------------------------------
 -----------------------------------------------------
    Center         ---- Electric Field Gradient ----
                   ----       Eigenvalues       ----
 -----------------------------------------------------
    1 Atom     -501.151169   -500.761203   -500.656708
    2 Atom     -501.375828   -501.092393   -500.698810
    3 Atom     -812.669939   -812.610147   -812.155546
    4 Atom     -500.871941   -500.839706   -500.416227
    5 Atom     -501.141974   -500.755227   -500.645663
    6 Atom     -501.664102   -500.979049   -500.913455
    7 Atom     -501.097902   -500.746969   -500.642695
    8 Atom     -501.257393   -500.805609   -500.737895
    9 Atom     -501.161811   -501.040612   -500.544523
   10 Atom     -501.094207   -500.764804   -500.717119
   11 Atom     -500.833555   -500.174297   -500.151576
   12 Atom    -1238.444819  -1236.163778  -1235.170803
   13 Atom     -500.991429   -500.222883   -500.162352
   14 Atom       -2.124175     -1.666847     -1.641677
   15 Atom       -2.131456     -1.686153     -1.653886
   16 Atom       -2.123007     -1.670723     -1.655141
   17 Atom       -2.150787     -1.690211     -1.660192
   18 Atom       -2.140490     -1.682508     -1.656667
   19 Atom       -2.120362     -1.665070     -1.637748
   20 Atom       -2.118686     -1.686858     -1.665498
   21 Atom       -2.118683     -1.686857     -1.665498
   22 Atom       -2.133380     -1.699405     -1.666516
   23 Atom       -2.142159     -1.703215     -1.678214
   24 Atom       -2.137205     -1.710871     -1.686004
   25 Atom       -2.137218     -1.710887     -1.686006
 -----------------------------------------------------
 -----------------------------------------------------
    Center         ---- Electric Field Gradient ----
                       ( tensor representation )
                   3XX-RR        3YY-RR        3ZZ-RR
 -----------------------------------------------------
    1 Atom        0.191726      0.103083     -0.294809
    2 Atom        0.141267      0.178885     -0.320151
    3 Atom       -0.169915     -0.153084      0.322998
    4 Atom       -0.134490      0.264905     -0.130415
    5 Atom        0.200509      0.093844     -0.294353
    6 Atom        0.254423      0.224144     -0.478567
    7 Atom        0.148482      0.120231     -0.268713
    8 Atom        0.187305      0.136455     -0.323761
    9 Atom       -0.078581      0.324743     -0.246162
   10 Atom        0.095192      0.140306     -0.235497
   11 Atom        0.149302     -0.361481      0.212179
   12 Atom       -1.757745      0.335416      1.422329
   13 Atom       -0.166243     -0.069762      0.236005
   14 Atom       -0.090871     -0.078352      0.169223
   15 Atom       -0.270725      0.100779      0.169946
   16 Atom        0.107863     -0.269013      0.161149
   17 Atom        0.109210     -0.282748      0.173538
   18 Atom       -0.062021     -0.107866      0.169888
   19 Atom        0.102593     -0.272571      0.169978
   20 Atom        0.099888      0.046442     -0.146330
   21 Atom        0.099921      0.046455     -0.146376
   22 Atom       -0.300241      0.133657      0.166584
   23 Atom       -0.183597      0.020615      0.162982
   24 Atom        0.138596      0.007700     -0.146296
   25 Atom        0.138515      0.007782     -0.146297
 -----------------------------------------------------
 -----------------------------------------------------
    Center         ---- Electric Field Gradient ----
                       ( tensor representation )
                   ----       Eigenvalues       ----
 -----------------------------------------------------
    1 Atom       -0.294809      0.095157      0.199652
    2 Atom       -0.320151     -0.036716      0.356867
    3 Atom       -0.191395     -0.131603      0.322998
    4 Atom       -0.162650     -0.130415      0.293065
    5 Atom       -0.294353      0.092394      0.201959
    6 Atom       -0.478567      0.206486      0.272080
    7 Atom       -0.268713      0.082219      0.186494
    8 Atom       -0.323761      0.128023      0.195737
    9 Atom       -0.246162     -0.124963      0.371126
   10 Atom       -0.235497      0.093906      0.141591
   11 Atom       -0.447079      0.212179      0.234900
   12 Atom       -1.851686      0.429356      1.422330
   13 Atom       -0.532541      0.236005      0.296536
   14 Atom       -0.313275      0.144052      0.169223
   15 Atom       -0.307625      0.137679      0.169946
   16 Atom       -0.306716      0.145567      0.161149
   17 Atom       -0.317057      0.143519      0.173538
   18 Atom       -0.313935      0.144047      0.169888
   19 Atom       -0.312635      0.142657      0.169978
   20 Atom       -0.295005      0.136823      0.158182
   21 Atom       -0.295003      0.136822      0.158181
   22 Atom       -0.300280      0.133695      0.166584
   23 Atom       -0.300963      0.137981      0.162982
   24 Atom       -0.292512      0.133822      0.158690
   25 Atom       -0.292514      0.133816      0.158698
 -----------------------------------------------------

 Test job not archived.
 1|1|UNPC-NP-ALMACH|FOpt|RB3LYP|6-311++G(d,p)|C11H12N1O1(1+)|HERA|06-Au
 g-2018|0||# RB3LYP/6-311++G** Opt Test prop=EFG||302_trans||1,1|C,1.38
 98379116,3.1732171147,1.545699687|C,0.148224698,3.521345591,1.01254714
 22|N,-0.6100089515,2.6396203028,0.3523810285|C,-0.1943171016,1.3288762
 624,0.1657782711|C,1.0736471665,0.9275389092,0.6962409256|C,1.85052364
 21,1.8871404688,1.3898112347|C,-0.9773943934,0.3870193223,-0.525547029
 9|C,-0.525027506,-0.9046537749,-0.6874294704|C,0.7301596927,-1.3158182
 838,-0.1666056497|C,1.5108597308,-0.3957892291,0.516852059|C,-1.916050
 7587,3.0811185602,-0.1854141506|O,1.2260918534,-2.5532442505,-0.289365
 7243|C,0.4827837597,-3.5677499248,-0.9835992767|H,1.9624864178,3.92549
 01983,2.070685116|H,-0.2526487392,4.5206676667,1.1115798287|H,2.812212
 0601,1.5947711417,1.79581556|H,-1.9391028884,0.6550825332,-0.938937657
 6|H,-1.1476770752,-1.6081620643,-1.2231705869|H,2.4681786493,-0.709844
 9058,0.9139612365|H,-1.9267996093,2.962183516,-1.2685545865|H,-2.71626
 03331,2.4936229598,0.2639962579|H,-2.0576947582,4.1295051269,0.0621518
 06|H,1.1036744002,-4.458449317,-0.9369063161|H,-0.4711816108,-3.761259
 1483,-0.4865393841|H,0.3231347433,-3.2883547754,-2.0281123203||Version
 =EM64W-G09RevD.01|State=1-A|HF=-556.2901002|RMSD=4.154e-009|RMSF=1.647
 e-005|Dipole=-0.9399974,1.5259551,-0.0181158|Quadrupole=-4.3924085,16.
 6786596,-12.2862511,-2.6510584,6.4437456,9.3886924|PG=C01 [X(C11H12N1O
 1)]||@


 There are more things in heaven and earth, Horatio,
 than are dreamt of in your philosophy.
                   -- Hamlet, Act I, Scene 5
 Job cpu time:       0 days  0 hours 14 minutes 43.0 seconds.
 File lengths (MBytes):  RWF=     62 Int=      0 D2E=      0 Chk=     10 Scr=      1
 Normal termination of Gaussian 09 at Mon Aug 06 16:42:38 2018.
