 Entering Link 1 = C:\G09W\l1.exe PID=     18908.
  
 Copyright (c) 1988,1990,1992,1993,1995,1998,2003,2009,2013,
            Gaussian, Inc.  All Rights Reserved.
  
 This is part of the Gaussian(R) 09 program.  It is based on
 the Gaussian(R) 03 system (copyright 2003, Gaussian, Inc.),
 the Gaussian(R) 98 system (copyright 1998, Gaussian, Inc.),
 the Gaussian(R) 94 system (copyright 1995, Gaussian, Inc.),
 the Gaussian 92(TM) system (copyright 1992, Gaussian, Inc.),
 the Gaussian 90(TM) system (copyright 1990, Gaussian, Inc.),
 the Gaussian 88(TM) system (copyright 1988, Gaussian, Inc.),
 the Gaussian 86(TM) system (copyright 1986, Carnegie Mellon
 University), and the Gaussian 82(TM) system (copyright 1983,
 Carnegie Mellon University). Gaussian is a federally registered
 trademark of Gaussian, Inc.
  
 This software contains proprietary and confidential information,
 including trade secrets, belonging to Gaussian, Inc.
  
 This software is provided under written license and may be
 used, copied, transmitted, or stored only in accord with that
 written license.
  
 The following legend is applicable only to US Government
 contracts under FAR:
  
                    RESTRICTED RIGHTS LEGEND
  
 Use, reproduction and disclosure by the US Government is
 subject to restrictions as set forth in subparagraphs (a)
 and (c) of the Commercial Computer Software - Restricted
 Rights clause in FAR 52.227-19.
  
 Gaussian, Inc.
 340 Quinnipiac St., Bldg. 40, Wallingford CT 06492
  
  
 ---------------------------------------------------------------
 Warning -- This program may not be used in any manner that
 competes with the business of Gaussian, Inc. or will provide
 assistance to any competitor of Gaussian, Inc.  The licensee
 of this program is prohibited from giving any competitor of
 Gaussian, Inc. access to this program.  By using this program,
 the user acknowledges that Gaussian, Inc. is engaged in the
 business of creating and licensing software in the field of
 computational chemistry and represents and warrants to the
 licensee that it is not a competitor of Gaussian, Inc. and that
 it will not use this program in any manner prohibited above.
 ---------------------------------------------------------------
  

 Cite this work as:
 Gaussian 09, Revision D.01,
 M. J. Frisch, G. W. Trucks, H. B. Schlegel, G. E. Scuseria, 
 M. A. Robb, J. R. Cheeseman, G. Scalmani, V. Barone, B. Mennucci, 
 G. A. Petersson, H. Nakatsuji, M. Caricato, X. Li, H. P. Hratchian, 
 A. F. Izmaylov, J. Bloino, G. Zheng, J. L. Sonnenberg, M. Hada, 
 M. Ehara, K. Toyota, R. Fukuda, J. Hasegawa, M. Ishida, T. Nakajima, 
 Y. Honda, O. Kitao, H. Nakai, T. Vreven, J. A. Montgomery, Jr., 
 J. E. Peralta, F. Ogliaro, M. Bearpark, J. J. Heyd, E. Brothers, 
 K. N. Kudin, V. N. Staroverov, T. Keith, R. Kobayashi, J. Normand, 
 K. Raghavachari, A. Rendell, J. C. Burant, S. S. Iyengar, J. Tomasi, 
 M. Cossi, N. Rega, J. M. Millam, M. Klene, J. E. Knox, J. B. Cross, 
 V. Bakken, C. Adamo, J. Jaramillo, R. Gomperts, R. E. Stratmann, 
 O. Yazyev, A. J. Austin, R. Cammi, C. Pomelli, J. W. Ochterski, 
 R. L. Martin, K. Morokuma, V. G. Zakrzewski, G. A. Voth, 
 P. Salvador, J. J. Dannenberg, S. Dapprich, A. D. Daniels, 
 O. Farkas, J. B. Foresman, J. V. Ortiz, J. Cioslowski, 
 and D. J. Fox, Gaussian, Inc., Wallingford CT, 2013.
 
 ******************************************
 Gaussian 09:  EM64W-G09RevD.01 13-Apr-2013
                06-Aug-2018 
 ******************************************
 %Chk=Anth_302_cis.chk
 %Mem=64GB
 %NProcShared=20
 Will use up to   20 processors via shared memory.
 -------------------------------------
 # RB3LYP/6-311++G** Opt Test prop=EFG
 -------------------------------------
 1/14=-1,18=20,19=15,26=3,38=1/1,3;
 2/9=110,12=2,17=6,18=5,40=1/2;
 3/5=4,6=6,7=1111,11=2,16=1,25=1,30=1,71=1,74=-5,116=1/1,2,3;
 4//1;
 5/5=2,38=5/2;
 6/7=2,8=2,9=2,10=2,14=1,28=1/1,2;
 7//1,2,3,16;
 1/14=-1,18=20,19=15,26=3/3(2);
 2/9=110/2;
 99//99;
 2/9=110/2;
 3/5=4,6=6,7=1111,11=2,16=1,25=1,30=1,71=1,74=-5,116=1/1,2,3;
 4/5=5,16=3,69=1/1;
 5/5=2,38=5/2;
 7//1,2,3,16;
 1/14=-1,18=20,19=15,26=3/3(-5);
 2/9=110/2;
 6/7=2,8=2,9=2,10=2,14=1,19=2,28=1/1,2;
 99/9=1/99;
 --------
 C11NH12O
 --------
 Symbolic Z-matrix:
 Charge =  1 Multiplicity = 1
 C                    -0.4727   -1.6581    2.7843 
 C                    -0.1998   -0.4773    3.3536 
 N                     0.054     0.6196    2.6873 
 C                     0.0376    0.5449    1.3747 
 C                    -0.2304   -0.6127    0.7317 
 C                    -0.4876   -1.722     1.4477 
 C                     0.2859    1.6188    0.6019 
 C                     0.2661    1.543    -0.7365 
 C                     0.0027    0.3996   -1.3941 
 C                    -0.246    -0.6703   -0.6143 
 C                     0.3512    1.9077    3.4502 
 O                    -0.0071    0.4171   -2.769 
 C                    -0.3402   -0.7616   -3.4642 
 H                    -0.6795   -2.5506    3.3972 
 H                    -0.1888   -0.4283    4.4552 
 H                    -0.712    -2.6886    0.9659 
 H                     0.5128    2.6059    1.0354 
 H                     0.4719    2.4547   -1.3244 
 H                    -0.4744   -1.6372   -1.09 
 H                    -0.405     2.6886    3.2076 
 H                     0.3171    1.7637    4.5531 
 H                     1.3737    2.2774    3.2088 
 H                    -0.308    -0.5331   -4.5531 
 H                    -1.3737   -1.084    -3.2067 
 H                     0.4077   -1.5585   -3.2549 
 

 GradGradGradGradGradGradGradGradGradGradGradGradGradGradGradGradGradGrad
 Berny optimization.
 Initialization pass.
                           ----------------------------
                           !    Initial Parameters    !
                           ! (Angstroms and Degrees)  !
 --------------------------                            --------------------------
 ! Name  Definition              Value          Derivative Info.                !
 --------------------------------------------------------------------------------
 ! R1    R(1,2)                  1.339          estimate D2E/DX2                !
 ! R2    R(1,6)                  1.3382         estimate D2E/DX2                !
 ! R3    R(1,14)                 1.1023         estimate D2E/DX2                !
 ! R4    R(2,3)                  1.3083         estimate D2E/DX2                !
 ! R5    R(2,15)                 1.1027         estimate D2E/DX2                !
 ! R6    R(3,4)                  1.3148         estimate D2E/DX2                !
 ! R7    R(3,11)                 1.5263         estimate D2E/DX2                !
 ! R8    R(4,5)                  1.351          estimate D2E/DX2                !
 ! R9    R(4,7)                  1.3462         estimate D2E/DX2                !
 ! R10   R(5,6)                  1.3451         estimate D2E/DX2                !
 ! R11   R(5,10)                 1.3473         estimate D2E/DX2                !
 ! R12   R(6,16)                 1.1031         estimate D2E/DX2                !
 ! R13   R(7,8)                  1.3407         estimate D2E/DX2                !
 ! R14   R(7,17)                 1.1017         estimate D2E/DX2                !
 ! R15   R(8,9)                  1.3451         estimate D2E/DX2                !
 ! R16   R(8,18)                 1.1042         estimate D2E/DX2                !
 ! R17   R(9,10)                 1.3471         estimate D2E/DX2                !
 ! R18   R(9,12)                 1.375          estimate D2E/DX2                !
 ! R19   R(10,19)                1.1015         estimate D2E/DX2                !
 ! R20   R(11,20)                1.1138         estimate D2E/DX2                !
 ! R21   R(11,21)                1.1128         estimate D2E/DX2                !
 ! R22   R(11,22)                1.1138         estimate D2E/DX2                !
 ! R23   R(12,13)                1.4084         estimate D2E/DX2                !
 ! R24   R(13,23)                1.1131         estimate D2E/DX2                !
 ! R25   R(13,24)                1.1128         estimate D2E/DX2                !
 ! R26   R(13,25)                1.1127         estimate D2E/DX2                !
 ! A1    A(2,1,6)              117.9721         estimate D2E/DX2                !
 ! A2    A(2,1,14)             121.0558         estimate D2E/DX2                !
 ! A3    A(6,1,14)             120.9721         estimate D2E/DX2                !
 ! A4    A(1,2,3)              124.2211         estimate D2E/DX2                !
 ! A5    A(1,2,15)             117.7718         estimate D2E/DX2                !
 ! A6    A(3,2,15)             118.0071         estimate D2E/DX2                !
 ! A7    A(2,3,4)              117.2828         estimate D2E/DX2                !
 ! A8    A(2,3,11)             119.3933         estimate D2E/DX2                !
 ! A9    A(4,3,11)             123.3239         estimate D2E/DX2                !
 ! A10   A(3,4,5)              121.7542         estimate D2E/DX2                !
 ! A11   A(3,4,7)              121.7008         estimate D2E/DX2                !
 ! A12   A(5,4,7)              116.5449         estimate D2E/DX2                !
 ! A13   A(4,5,6)              119.4196         estimate D2E/DX2                !
 ! A14   A(4,5,10)             120.9567         estimate D2E/DX2                !
 ! A15   A(6,5,10)             119.6237         estimate D2E/DX2                !
 ! A16   A(1,6,5)              119.3501         estimate D2E/DX2                !
 ! A17   A(1,6,16)             118.7086         estimate D2E/DX2                !
 ! A18   A(5,6,16)             121.9412         estimate D2E/DX2                !
 ! A19   A(4,7,8)              121.6865         estimate D2E/DX2                !
 ! A20   A(4,7,17)             121.7937         estimate D2E/DX2                !
 ! A21   A(8,7,17)             116.5196         estimate D2E/DX2                !
 ! A22   A(7,8,9)              122.6169         estimate D2E/DX2                !
 ! A23   A(7,8,18)             118.8222         estimate D2E/DX2                !
 ! A24   A(9,8,18)             118.5608         estimate D2E/DX2                !
 ! A25   A(8,9,10)             115.3596         estimate D2E/DX2                !
 ! A26   A(8,9,12)             118.6479         estimate D2E/DX2                !
 ! A27   A(10,9,12)            125.9877         estimate D2E/DX2                !
 ! A28   A(5,10,9)             122.835          estimate D2E/DX2                !
 ! A29   A(5,10,19)            118.1226         estimate D2E/DX2                !
 ! A30   A(9,10,19)            119.0423         estimate D2E/DX2                !
 ! A31   A(3,11,20)            110.526          estimate D2E/DX2                !
 ! A32   A(3,11,21)            112.3475         estimate D2E/DX2                !
 ! A33   A(3,11,22)            110.522          estimate D2E/DX2                !
 ! A34   A(20,11,21)           106.6071         estimate D2E/DX2                !
 ! A35   A(20,11,22)           110.0828         estimate D2E/DX2                !
 ! A36   A(21,11,22)           106.613          estimate D2E/DX2                !
 ! A37   A(9,12,13)            118.9857         estimate D2E/DX2                !
 ! A38   A(12,13,23)           107.7124         estimate D2E/DX2                !
 ! A39   A(12,13,24)           110.3587         estimate D2E/DX2                !
 ! A40   A(12,13,25)           110.3374         estimate D2E/DX2                !
 ! A41   A(23,13,24)           108.2225         estimate D2E/DX2                !
 ! A42   A(23,13,25)           108.1544         estimate D2E/DX2                !
 ! A43   A(24,13,25)           111.9136         estimate D2E/DX2                !
 ! D1    D(6,1,2,3)             -0.0212         estimate D2E/DX2                !
 ! D2    D(6,1,2,15)           179.9752         estimate D2E/DX2                !
 ! D3    D(14,1,2,3)          -179.9836         estimate D2E/DX2                !
 ! D4    D(14,1,2,15)            0.0128         estimate D2E/DX2                !
 ! D5    D(2,1,6,5)              0.0453         estimate D2E/DX2                !
 ! D6    D(2,1,6,16)          -179.9421         estimate D2E/DX2                !
 ! D7    D(14,1,6,5)          -179.9923         estimate D2E/DX2                !
 ! D8    D(14,1,6,16)            0.0203         estimate D2E/DX2                !
 ! D9    D(1,2,3,4)             -0.0265         estimate D2E/DX2                !
 ! D10   D(1,2,3,11)           179.9805         estimate D2E/DX2                !
 ! D11   D(15,2,3,4)           179.9771         estimate D2E/DX2                !
 ! D12   D(15,2,3,11)           -0.0159         estimate D2E/DX2                !
 ! D13   D(2,3,4,5)              0.0501         estimate D2E/DX2                !
 ! D14   D(2,3,4,7)            179.9875         estimate D2E/DX2                !
 ! D15   D(11,3,4,5)          -179.9571         estimate D2E/DX2                !
 ! D16   D(11,3,4,7)            -0.0198         estimate D2E/DX2                !
 ! D17   D(2,3,11,20)         -118.9516         estimate D2E/DX2                !
 ! D18   D(2,3,11,21)           -0.0125         estimate D2E/DX2                !
 ! D19   D(2,3,11,22)          118.9315         estimate D2E/DX2                !
 ! D20   D(4,3,11,20)           61.0558         estimate D2E/DX2                !
 ! D21   D(4,3,11,21)          179.995          estimate D2E/DX2                !
 ! D22   D(4,3,11,22)          -61.0611         estimate D2E/DX2                !
 ! D23   D(3,4,5,6)             -0.0264         estimate D2E/DX2                !
 ! D24   D(3,4,5,10)           179.8459         estimate D2E/DX2                !
 ! D25   D(7,4,5,6)           -179.9669         estimate D2E/DX2                !
 ! D26   D(7,4,5,10)            -0.0945         estimate D2E/DX2                !
 ! D27   D(3,4,7,8)           -179.8452         estimate D2E/DX2                !
 ! D28   D(3,4,7,17)            -0.0358         estimate D2E/DX2                !
 ! D29   D(5,4,7,8)              0.0952         estimate D2E/DX2                !
 ! D30   D(5,4,7,17)           179.9046         estimate D2E/DX2                !
 ! D31   D(4,5,6,1)             -0.0229         estimate D2E/DX2                !
 ! D32   D(4,5,6,16)           179.964          estimate D2E/DX2                !
 ! D33   D(10,5,6,1)          -179.897          estimate D2E/DX2                !
 ! D34   D(10,5,6,16)            0.0899         estimate D2E/DX2                !
 ! D35   D(4,5,10,9)             0.1663         estimate D2E/DX2                !
 ! D36   D(4,5,10,19)         -179.7325         estimate D2E/DX2                !
 ! D37   D(6,5,10,9)          -179.9615         estimate D2E/DX2                !
 ! D38   D(6,5,10,19)            0.1397         estimate D2E/DX2                !
 ! D39   D(4,7,8,9)             -0.1668         estimate D2E/DX2                !
 ! D40   D(4,7,8,18)           179.7053         estimate D2E/DX2                !
 ! D41   D(17,7,8,9)          -179.9858         estimate D2E/DX2                !
 ! D42   D(17,7,8,18)           -0.1137         estimate D2E/DX2                !
 ! D43   D(7,8,9,10)             0.218          estimate D2E/DX2                !
 ! D44   D(7,8,9,12)           179.4756         estimate D2E/DX2                !
 ! D45   D(18,8,9,10)         -179.6544         estimate D2E/DX2                !
 ! D46   D(18,8,9,12)           -0.3968         estimate D2E/DX2                !
 ! D47   D(8,9,10,5)            -0.2185         estimate D2E/DX2                !
 ! D48   D(8,9,10,19)          179.6794         estimate D2E/DX2                !
 ! D49   D(12,9,10,5)         -179.4134         estimate D2E/DX2                !
 ! D50   D(12,9,10,19)           0.4845         estimate D2E/DX2                !
 ! D51   D(8,9,12,13)         -177.2131         estimate D2E/DX2                !
 ! D52   D(10,9,12,13)           1.9578         estimate D2E/DX2                !
 ! D53   D(9,12,13,23)         178.9923         estimate D2E/DX2                !
 ! D54   D(9,12,13,24)          61.0452         estimate D2E/DX2                !
 ! D55   D(9,12,13,25)         -63.1545         estimate D2E/DX2                !
 --------------------------------------------------------------------------------
 Trust Radius=3.00D-01 FncErr=1.00D-07 GrdErr=1.00D-06
 Number of steps in this run=    134 maximum allowed number of steps=    150.
 GradGradGradGradGradGradGradGradGradGradGradGradGradGradGradGradGradGrad

                          Input orientation:                          
 ---------------------------------------------------------------------
 Center     Atomic      Atomic             Coordinates (Angstroms)
 Number     Number       Type             X           Y           Z
 ---------------------------------------------------------------------
      1          6           0       -0.472700   -1.658100    2.784300
      2          6           0       -0.199800   -0.477300    3.353600
      3          7           0        0.054000    0.619600    2.687300
      4          6           0        0.037600    0.544900    1.374700
      5          6           0       -0.230400   -0.612700    0.731700
      6          6           0       -0.487600   -1.722000    1.447700
      7          6           0        0.285900    1.618800    0.601900
      8          6           0        0.266100    1.543000   -0.736500
      9          6           0        0.002700    0.399600   -1.394100
     10          6           0       -0.246000   -0.670300   -0.614300
     11          6           0        0.351200    1.907700    3.450200
     12          8           0       -0.007100    0.417100   -2.769000
     13          6           0       -0.340200   -0.761600   -3.464200
     14          1           0       -0.679500   -2.550600    3.397200
     15          1           0       -0.188800   -0.428300    4.455200
     16          1           0       -0.712000   -2.688600    0.965900
     17          1           0        0.512800    2.605900    1.035400
     18          1           0        0.471900    2.454700   -1.324400
     19          1           0       -0.474400   -1.637200   -1.090000
     20          1           0       -0.405000    2.688600    3.207600
     21          1           0        0.317100    1.763700    4.553100
     22          1           0        1.373700    2.277400    3.208800
     23          1           0       -0.308000   -0.533100   -4.553100
     24          1           0       -1.373700   -1.084000   -3.206700
     25          1           0        0.407700   -1.558500   -3.254900
 ---------------------------------------------------------------------
                    Distance matrix (angstroms):
                    1          2          3          4          5
     1  C    0.000000
     2  C    1.338979   0.000000
     3  N    2.339816   1.308266   0.000000
     4  C    2.664693   2.239932   1.314826   0.000000
     5  C    2.316190   2.625572   2.328909   1.351041   0.000000
     6  C    1.338210   2.294463   2.704261   2.328089   1.345122
     7  C    4.009541   3.493049   2.324021   1.346155   2.294124
     8  C    4.815485   4.585585   3.552472   2.346398   2.655027
     9  C    4.681790   4.832247   4.087647   2.772830   2.366033
    10  C    3.546495   3.972860   3.557303   2.348033   1.347322
    11  C    3.719834   2.449726   1.526285   2.502652   3.752455
    12  O    5.946628   6.190583   5.460398   4.145911   3.655852
    13  C    6.313875   6.825169   6.316966   5.026393   4.199977
    14  H    1.102256   2.128517   3.330488   3.766545   3.325964
    15  H    2.094019   1.102744   2.069424   3.238496   3.728295
    16  H    2.103752   3.294436   3.807120   3.344330   2.143863
    17  H    4.712914   3.922751   2.623863   2.142116   3.317223
    18  H    5.889721   5.561608   4.431249   3.334830   3.758951
    19  H    3.874357   4.600691   4.431743   3.331434   2.104217
    20  H    4.367787   3.175901   2.182236   2.854972   4.130272
    21  H    3.932067   2.593852   2.204404   3.415526   4.533225
    22  H    4.367786   3.175727   2.182171   2.854933   4.130598
    23  H    7.424971   7.907637   7.340515   6.034926   5.285969
    24  H    6.085513   6.692060   6.299192   5.063034   4.127984
    25  H    6.103848   6.723862   6.338688   5.098476   4.146648
                    6          7          8          9         10
     6  C    0.000000
     7  C    3.531943   0.000000
     8  C    3.999877   1.340691   0.000000
     9  C    3.580141   2.355985   1.345058   0.000000
    10  C    2.327292   2.646137   2.275055   1.347080   0.000000
    11  C    4.229458   2.863659   4.203416   5.085574   4.850040
    12  O    4.752598   3.590668   2.339518   1.375046   2.425334
    13  C    5.007081   4.753049   3.622034   2.398183   2.852918
    14  H    2.126959   5.111712   5.893997   5.667948   4.451470
    15  H    3.287552   4.389064   5.571957   5.910702   5.075595
    16  H    1.103088   4.436439   4.664899   3.951883   2.605326
    17  H    4.461111   1.101713   2.080925   3.321209   3.745767
    18  H    5.103920   2.108069   1.104163   2.109133   3.284090
    19  H    2.539151   3.747281   3.284353   2.113919   1.101523
    20  H    4.749470   2.900256   4.161574   5.155714   5.090620
    21  H    4.737210   3.953979   5.294448   6.109730   5.739639
    22  H    4.749854   2.900516   4.163113   5.156788   5.091999
    23  H    6.120077   5.617599   4.382490   3.308435   3.941676
    24  H    4.780759   4.956292   3.961308   2.716811   2.857165
    25  H    4.789858   4.998497   3.997711   2.731439   2.861641
                   11         12         13         14         15
    11  C    0.000000
    12  O    6.405366   0.000000
    13  C    7.443932   1.408401   0.000000
    14  H    4.576198   6.876146   7.098905   0.000000
    15  H    2.599716   7.275767   7.927856   2.421633   0.000000
    16  H    5.331802   4.908333   4.845343   2.435430   4.190216
    17  H    2.518900   4.419796   5.684546   5.795617   4.625326
    18  H    4.807347   2.543251   3.947510   6.976550   6.492456
    19  H    5.819050   2.693986   2.534070   4.583812   5.682627
    20  H    1.113776   6.406074   7.511391   5.249811   3.364270
    21  H    1.112784   7.451952   8.431268   4.576298   2.251751
    22  H    1.113759   6.411039   7.530067   5.249829   3.363886
    23  H    8.393144   2.043632   1.113082   8.210700   9.009698
    24  H    7.499324   2.076651   1.112821   6.800318   7.780658
    25  H    7.548251   2.076332   1.112749   6.812980   7.815293
                   16         17         18         19         20
    16  H    0.000000
    17  H    5.434767   0.000000
    18  H    5.753315   2.364993   0.000000
    19  H    2.321340   4.847245   4.206432   0.000000
    20  H    5.833845   2.359587   4.621979   6.098092   0.000000
    21  H    5.809477   3.622404   5.920004   6.636051   1.785284
    22  H    5.834544   2.360663   4.625428   6.100758   1.825612
    23  H    5.938750   6.462071   4.467628   3.638652   8.403406
    24  H    4.519201   5.930401   4.412674   2.365415   7.504274
    25  H    4.510655   5.979962   4.453844   2.339035   7.775747
                   21         22         23         24         25
    21  H    0.000000
    22  H    1.785339   0.000000
    23  H    9.412169   8.424614   0.000000
    24  H    8.436984   7.746345   1.803330   0.000000
    25  H    8.485876   7.578041   1.802497   1.844142   0.000000
 Stoichiometry    C11H12NO(1+)
 Framework group  C1[X(C11H12NO)]
 Deg. of freedom    69
 Full point group                 C1      NOp   1
 Largest Abelian subgroup         C1      NOp   1
 Largest concise Abelian subgroup C1      NOp   1
                         Standard orientation:                         
 ---------------------------------------------------------------------
 Center     Atomic      Atomic             Coordinates (Angstroms)
 Number     Number       Type             X           Y           Z
 ---------------------------------------------------------------------
      1          6           0       -2.122714    1.959627   -0.000380
      2          6           0       -2.775388    0.790512    0.006880
      3          7           0       -2.189496   -0.379227    0.005909
      4          6           0       -0.874794   -0.394789   -0.003330
      5          6           0       -0.150259    0.745521   -0.010526
      6          6           0       -0.784826    1.931555   -0.008765
      7          6           0       -0.181010   -1.548390   -0.004857
      8          6           0        1.159576   -1.563916   -0.011197
      9          6           0        1.897627   -0.439465   -0.019721
     10          6           0        1.196602    0.710831   -0.016850
     11          6           0       -3.042984   -1.644541    0.015195
     12          8           0        3.268178   -0.550442   -0.014737
     13          6           0        4.047625    0.621500    0.036311
     14          1           0       -2.670009    2.916411    0.001136
     15          1           0       -3.877777    0.817499    0.014200
     16          1           0       -0.234793    2.887715   -0.013827
     17          1           0       -0.684285   -2.528409    0.002149
     18          1           0        1.680673   -2.537373   -0.007203
     19          1           0        1.740657    1.668618   -0.018048
     20          1           0       -2.836439   -2.248234    0.928098
     21          1           0       -4.132802   -1.419749    0.022398
     22          1           0       -2.849345   -2.252831   -0.897463
     23          1           0        5.117883    0.316042    0.050325
     24          1           0        3.835012    1.187472    0.970571
     25          1           0        3.875548    1.240290   -0.872369
 ---------------------------------------------------------------------
 Rotational constants (GHZ):      1.8790305      0.5562554      0.4317173
 Standard basis: 6-311++G(d,p) (5D, 7F)
 There are   383 symmetry adapted cartesian basis functions of A   symmetry.
 There are   370 symmetry adapted basis functions of A   symmetry.
   370 basis functions,   576 primitive gaussians,   383 cartesian basis functions
    46 alpha electrons       46 beta electrons
       nuclear repulsion energy       776.2359748772 Hartrees.
 NAtoms=   25 NActive=   25 NUniq=   25 SFac= 1.00D+00 NAtFMM=   60 NAOKFM=F Big=F
 Integral buffers will be    131072 words long.
 Raffenetti 2 integral format.
 Two-electron integral symmetry is turned on.
 One-electron integrals computed using PRISM.
 NBasis=   370 RedAO= T EigKep=  1.35D-06  NBF=   370
 NBsUse=   366 1.00D-06 EigRej=  6.72D-07 NBFU=   366
 ExpMin= 3.60D-02 ExpMax= 8.59D+03 ExpMxC= 1.30D+03 IAcc=3 IRadAn=         5 AccDes= 0.00D+00
 Harris functional with IExCor=  402 and IRadAn=       5 diagonalized for initial guess.
 HarFok:  IExCor=  402 AccDes= 0.00D+00 IRadAn=         5 IDoV= 1 UseB2=F ITyADJ=14
 ICtDFT=  3500011 ScaDFX=  1.000000  1.000000  1.000000  1.000000
 FoFCou: FMM=F IPFlag=           0 FMFlag=      100000 FMFlg1=           0
         NFxFlg=           0 DoJE=T BraDBF=F KetDBF=T FulRan=T
         wScrn=  0.000000 ICntrl=     500 IOpCl=  0 I1Cent=   200000004 NGrid=           0
         NMat0=    1 NMatS0=      1 NMatT0=    0 NMatD0=    1 NMtDS0=    0 NMtDT0=    0
 Petite list used in FoFCou.
 Keep R1 ints in memory in canonical form, NReq=2384196423.
 Requested convergence on RMS density matrix=1.00D-08 within 128 cycles.
 Requested convergence on MAX density matrix=1.00D-06.
 Requested convergence on             energy=1.00D-06.
 No special actions if energy rises.
 SCF Done:  E(RB3LYP) =  -556.244353337     A.U. after   15 cycles
            NFock= 15  Conv=0.90D-08     -V/T= 2.0021

 **********************************************************************

            Population analysis using the SCF density.

 **********************************************************************

 Orbital symmetries:
       Occupied  (A) (A) (A) (A) (A) (A) (A) (A) (A) (A) (A) (A)
                 (A) (A) (A) (A) (A) (A) (A) (A) (A) (A) (A) (A)
                 (A) (A) (A) (A) (A) (A) (A) (A) (A) (A) (A) (A)
                 (A) (A) (A) (A) (A) (A) (A) (A) (A) (A)
       Virtual   (A) (A) (A) (A) (A) (A) (A) (A) (A) (A) (A) (A)
                 (A) (A) (A) (A) (A) (A) (A) (A) (A) (A) (A) (A)
                 (A) (A) (A) (A) (A) (A) (A) (A) (A) (A) (A) (A)
                 (A) (A) (A) (A) (A) (A) (A) (A) (A) (A) (A) (A)
                 (A) (A) (A) (A) (A) (A) (A) (A) (A) (A) (A) (A)
                 (A) (A) (A) (A) (A) (A) (A) (A) (A) (A) (A) (A)
                 (A) (A) (A) (A) (A) (A) (A) (A) (A) (A) (A) (A)
                 (A) (A) (A) (A) (A) (A) (A) (A) (A) (A) (A) (A)
                 (A) (A) (A) (A) (A) (A) (A) (A) (A) (A) (A) (A)
                 (A) (A) (A) (A) (A) (A) (A) (A) (A) (A) (A) (A)
                 (A) (A) (A) (A) (A) (A) (A) (A) (A) (A) (A) (A)
                 (A) (A) (A) (A) (A) (A) (A) (A) (A) (A) (A) (A)
                 (A) (A) (A) (A) (A) (A) (A) (A) (A) (A) (A) (A)
                 (A) (A) (A) (A) (A) (A) (A) (A) (A) (A) (A) (A)
                 (A) (A) (A) (A) (A) (A) (A) (A) (A) (A) (A) (A)
                 (A) (A) (A) (A) (A) (A) (A) (A) (A) (A) (A) (A)
                 (A) (A) (A) (A) (A) (A) (A) (A) (A) (A) (A) (A)
                 (A) (A) (A) (A) (A) (A) (A) (A) (A) (A) (A) (A)
                 (A) (A) (A) (A) (A) (A) (A) (A) (A) (A) (A) (A)
                 (A) (A) (A) (A) (A) (A) (A) (A) (A) (A) (A) (A)
                 (A) (A) (A) (A) (A) (A) (A) (A) (A) (A) (A) (A)
                 (A) (A) (A) (A) (A) (A) (A) (A) (A) (A) (A) (A)
                 (A) (A) (A) (A) (A) (A) (A) (A) (A) (A) (A) (A)
                 (A) (A) (A) (A) (A) (A) (A) (A) (A) (A) (A) (A)
                 (A) (A) (A) (A) (A) (A) (A) (A) (A) (A) (A) (A)
                 (A) (A) (A) (A) (A) (A) (A) (A) (A) (A) (A) (A)
                 (A) (A) (A) (A) (A) (A) (A) (A)
 The electronic state is 1-A.
 Alpha  occ. eigenvalues --  -19.28920 -14.57879 -10.39743 -10.38944 -10.38088
 Alpha  occ. eigenvalues --  -10.37957 -10.35577 -10.34382 -10.34323 -10.34230
 Alpha  occ. eigenvalues --  -10.32970 -10.32735 -10.32099  -1.20962  -1.20345
 Alpha  occ. eigenvalues --   -1.05888  -1.01838  -0.95319  -0.92809  -0.89752
 Alpha  occ. eigenvalues --   -0.85902  -0.82435  -0.80980  -0.77609  -0.72677
 Alpha  occ. eigenvalues --   -0.71050  -0.68539  -0.65900  -0.64748  -0.64682
 Alpha  occ. eigenvalues --   -0.63401  -0.60141  -0.59716  -0.58633  -0.57754
 Alpha  occ. eigenvalues --   -0.57308  -0.55679  -0.55338  -0.54074  -0.53194
 Alpha  occ. eigenvalues --   -0.50854  -0.49625  -0.47126  -0.46234  -0.41712
 Alpha  occ. eigenvalues --   -0.38518
 Alpha virt. eigenvalues --   -0.24015  -0.17454  -0.14657  -0.13259  -0.12004
 Alpha virt. eigenvalues --   -0.10859  -0.10154  -0.08961  -0.08797  -0.08708
 Alpha virt. eigenvalues --   -0.07546  -0.06719  -0.06504  -0.06402  -0.05945
 Alpha virt. eigenvalues --   -0.05770  -0.05058  -0.04054  -0.03200  -0.02946
 Alpha virt. eigenvalues --   -0.02528  -0.02028  -0.01829  -0.01004  -0.00275
 Alpha virt. eigenvalues --   -0.00191   0.00297   0.00647   0.00847   0.01378
 Alpha virt. eigenvalues --    0.01844   0.02261   0.02663   0.02940   0.03145
 Alpha virt. eigenvalues --    0.03639   0.03904   0.04331   0.04393   0.04746
 Alpha virt. eigenvalues --    0.05006   0.05096   0.05597   0.05908   0.06299
 Alpha virt. eigenvalues --    0.06921   0.07151   0.07229   0.07667   0.08623
 Alpha virt. eigenvalues --    0.08645   0.09372   0.09870   0.10633   0.10828
 Alpha virt. eigenvalues --    0.11996   0.12213   0.12719   0.12782   0.13137
 Alpha virt. eigenvalues --    0.13291   0.13884   0.14159   0.15016   0.16289
 Alpha virt. eigenvalues --    0.16459   0.16933   0.17668   0.18033   0.18128
 Alpha virt. eigenvalues --    0.18950   0.19761   0.20124   0.20957   0.21160
 Alpha virt. eigenvalues --    0.21331   0.22060   0.22427   0.24100   0.24651
 Alpha virt. eigenvalues --    0.24932   0.26470   0.27422   0.28191   0.29380
 Alpha virt. eigenvalues --    0.29838   0.31232   0.32747   0.34510   0.36636
 Alpha virt. eigenvalues --    0.37539   0.38970   0.40152   0.40366   0.40459
 Alpha virt. eigenvalues --    0.41368   0.42113   0.42900   0.43448   0.44553
 Alpha virt. eigenvalues --    0.44753   0.45641   0.46283   0.46462   0.47817
 Alpha virt. eigenvalues --    0.48473   0.48626   0.48922   0.49764   0.51732
 Alpha virt. eigenvalues --    0.52163   0.53087   0.54534   0.54730   0.56194
 Alpha virt. eigenvalues --    0.56948   0.57362   0.57917   0.58787   0.60236
 Alpha virt. eigenvalues --    0.61498   0.63428   0.63554   0.64572   0.64814
 Alpha virt. eigenvalues --    0.66556   0.67362   0.68677   0.70716   0.71071
 Alpha virt. eigenvalues --    0.72105   0.73538   0.74332   0.75720   0.77073
 Alpha virt. eigenvalues --    0.77204   0.78747   0.80805   0.81061   0.81856
 Alpha virt. eigenvalues --    0.82397   0.85322   0.86161   0.87388   0.88319
 Alpha virt. eigenvalues --    0.89223   0.89572   0.90351   0.91768   0.92324
 Alpha virt. eigenvalues --    0.95731   0.95843   0.96455   0.97497   0.98574
 Alpha virt. eigenvalues --    1.01608   1.02158   1.03672   1.11500   1.13553
 Alpha virt. eigenvalues --    1.16476   1.17733   1.19960   1.22988   1.24267
 Alpha virt. eigenvalues --    1.27375   1.27644   1.30035   1.31108   1.31938
 Alpha virt. eigenvalues --    1.36801   1.37338   1.38139   1.40389   1.41634
 Alpha virt. eigenvalues --    1.42065   1.42798   1.43234   1.44594   1.46014
 Alpha virt. eigenvalues --    1.46599   1.48482   1.49074   1.49466   1.50694
 Alpha virt. eigenvalues --    1.54174   1.55742   1.56639   1.57033   1.57217
 Alpha virt. eigenvalues --    1.59532   1.60983   1.61740   1.62272   1.64585
 Alpha virt. eigenvalues --    1.64668   1.66540   1.68054   1.68874   1.71720
 Alpha virt. eigenvalues --    1.74899   1.76623   1.77798   1.77994   1.79050
 Alpha virt. eigenvalues --    1.81305   1.82830   1.85648   1.86540   1.87100
 Alpha virt. eigenvalues --    1.88615   1.88887   1.90726   1.94043   1.96681
 Alpha virt. eigenvalues --    1.98276   1.98416   1.99438   2.01963   2.02148
 Alpha virt. eigenvalues --    2.05685   2.05748   2.07124   2.10226   2.12215
 Alpha virt. eigenvalues --    2.19833   2.22137   2.23329   2.25480   2.26673
 Alpha virt. eigenvalues --    2.27473   2.29908   2.31856   2.33623   2.34313
 Alpha virt. eigenvalues --    2.37823   2.40404   2.40709   2.41949   2.42956
 Alpha virt. eigenvalues --    2.45114   2.47592   2.48599   2.50818   2.54365
 Alpha virt. eigenvalues --    2.56321   2.56768   2.57621   2.58162   2.59473
 Alpha virt. eigenvalues --    2.60327   2.61038   2.62938   2.64568   2.65499
 Alpha virt. eigenvalues --    2.66840   2.66955   2.70317   2.70823   2.73351
 Alpha virt. eigenvalues --    2.73870   2.75805   2.78586   2.79029   2.84586
 Alpha virt. eigenvalues --    2.90269   2.91028   2.92074   2.94223   2.98223
 Alpha virt. eigenvalues --    2.99309   3.01847   3.02947   3.11409   3.18401
 Alpha virt. eigenvalues --    3.22608   3.26072   3.28930   3.31236   3.34391
 Alpha virt. eigenvalues --    3.36105   3.40887   3.41859   3.50508   3.53202
 Alpha virt. eigenvalues --    3.54669   3.55487   3.60070   3.63043   3.65505
 Alpha virt. eigenvalues --    3.68482   3.72334   3.75947   3.85659   3.86974
 Alpha virt. eigenvalues --    3.95621   3.98815   4.03409   4.05677   4.13807
 Alpha virt. eigenvalues --    4.37035   4.72592   4.77747   4.91248   5.12880
 Alpha virt. eigenvalues --    5.27894   5.67725  23.41857  23.69292  23.72792
 Alpha virt. eigenvalues --   23.76921  23.90908  23.92302  24.00786  24.09080
 Alpha virt. eigenvalues --   24.12331  24.17605  24.24215  35.52671  49.85049
          Condensed to atoms (all electrons):
               1          2          3          4          5          6
     1  C    7.787997  -0.447853  -0.276671  -0.019717  -0.285978  -0.260102
     2  C   -0.447853   7.362154   0.612245  -0.271757  -0.040098  -0.305619
     3  N   -0.276671   0.612245   6.736877   0.055403  -0.147342  -0.103022
     4  C   -0.019717  -0.271757   0.055403   9.322771   0.370360   0.350708
     5  C   -0.285978  -0.040098  -0.147342   0.370360   6.262671   0.936276
     6  C   -0.260102  -0.305619  -0.103022   0.350708   0.936276   7.191037
     7  C    0.558943  -0.177434  -0.159245  -1.496763   0.058565  -0.646148
     8  C    0.193638  -0.459086  -0.028354  -1.924254  -1.375844  -1.277071
     9  C   -0.951135  -0.218986   0.000691   1.881153  -2.316737  -1.277134
    10  C    0.065062  -0.609293  -0.059425  -2.016895   2.323531   0.848450
    11  C   -0.020936  -0.009826   0.335599  -0.095050  -0.014223  -0.000391
    12  O    0.006274   0.002679   0.001833  -0.020638   0.095882   0.041676
    13  C   -0.020968  -0.005776  -0.000097   0.041719  -0.124899  -0.064828
    14  H    0.414841  -0.093638   0.009416   0.007093  -0.005705  -0.017181
    15  H   -0.011238   0.419789  -0.051591  -0.010399  -0.000579  -0.004582
    16  H   -0.052737   0.038949   0.003888   0.032889  -0.031958   0.337684
    17  H   -0.002247   0.020301  -0.034044  -0.174223   0.047783   0.006239
    18  H    0.000772  -0.016689  -0.004360   0.123500  -0.046118  -0.031261
    19  H    0.054549  -0.021119  -0.004644  -0.047707  -0.040283   0.017869
    20  H   -0.011151  -0.009768  -0.015224  -0.033216   0.003356  -0.005122
    21  H    0.075446  -0.042130  -0.068961   0.041575  -0.000052   0.004276
    22  H   -0.009469  -0.011157  -0.015524  -0.035806   0.002858  -0.005804
    23  H   -0.001531  -0.000476  -0.000071   0.005339  -0.013866  -0.007964
    24  H   -0.002522   0.001428   0.000198   0.005998   0.001908  -0.001975
    25  H   -0.003599   0.001466   0.000154   0.008395   0.008250  -0.002186
               7          8          9         10         11         12
     1  C    0.558943   0.193638  -0.951135   0.065062  -0.020936   0.006274
     2  C   -0.177434  -0.459086  -0.218986  -0.609293  -0.009826   0.002679
     3  N   -0.159245  -0.028354   0.000691  -0.059425   0.335599   0.001833
     4  C   -1.496763  -1.924254   1.881153  -2.016895  -0.095050  -0.020638
     5  C    0.058565  -1.375844  -2.316737   2.323531  -0.014223   0.095882
     6  C   -0.646148  -1.277071  -1.277134   0.848450  -0.000391   0.041676
     7  C    8.158852   1.941058  -2.453548  -0.043271  -0.008679  -0.136020
     8  C    1.941058  10.983097   1.767161  -3.405353  -0.155542  -0.702654
     9  C   -2.453548   1.767161  15.968708  -5.730741  -0.062513   0.187524
    10  C   -0.043271  -3.405353  -5.730741  13.923759  -0.065389   0.520400
    11  C   -0.008679  -0.155542  -0.062513  -0.065389   5.286893  -0.001190
    12  O   -0.136020  -0.702654   0.187524   0.520400  -0.001190   8.161182
    13  C   -0.007312   0.223667   0.386846  -0.600006  -0.000874   0.187936
    14  H   -0.013575   0.002172   0.013166   0.012539   0.001086  -0.000129
    15  H    0.014368  -0.002105  -0.000532  -0.014334  -0.017832   0.000052
    16  H   -0.015959  -0.019657   0.018469  -0.008454   0.000180   0.000691
    17  H    0.435157  -0.078199  -0.043308   0.133567   0.006570   0.001629
    18  H    0.012908   0.531517  -0.013611  -0.240209   0.000984  -0.028931
    19  H    0.053600   0.047250  -0.165446   0.481186  -0.002426  -0.027629
    20  H    0.020429   0.002938  -0.000105  -0.002997   0.405040   0.000133
    21  H    0.005459  -0.005202  -0.003509   0.004635   0.353805  -0.000080
    22  H    0.022444   0.006288   0.000171  -0.002767   0.403293   0.000126
    23  H    0.001374   0.032271   0.077712  -0.066329  -0.000012  -0.063445
    24  H   -0.004733  -0.003093   0.002955  -0.017673  -0.000028  -0.034763
    25  H   -0.012337  -0.025500   0.001576   0.007291  -0.000108  -0.035088
              13         14         15         16         17         18
     1  C   -0.020968   0.414841  -0.011238  -0.052737  -0.002247   0.000772
     2  C   -0.005776  -0.093638   0.419789   0.038949   0.020301  -0.016689
     3  N   -0.000097   0.009416  -0.051591   0.003888  -0.034044  -0.004360
     4  C    0.041719   0.007093  -0.010399   0.032889  -0.174223   0.123500
     5  C   -0.124899  -0.005705  -0.000579  -0.031958   0.047783  -0.046118
     6  C   -0.064828  -0.017181  -0.004582   0.337684   0.006239  -0.031261
     7  C   -0.007312  -0.013575   0.014368  -0.015959   0.435157   0.012908
     8  C    0.223667   0.002172  -0.002105  -0.019657  -0.078199   0.531517
     9  C    0.386846   0.013166  -0.000532   0.018469  -0.043308  -0.013611
    10  C   -0.600006   0.012539  -0.014334  -0.008454   0.133567  -0.240209
    11  C   -0.000874   0.001086  -0.017832   0.000180   0.006570   0.000984
    12  O    0.187936  -0.000129   0.000052   0.000691   0.001629  -0.028931
    13  C    5.129302   0.000111   0.000044   0.002458  -0.004246   0.008852
    14  H    0.000111   0.450388  -0.008602  -0.010503  -0.000555   0.000151
    15  H    0.000044  -0.008602   0.449464   0.002515   0.001680  -0.000561
    16  H    0.002458  -0.010503   0.002515   0.477179  -0.000203  -0.000255
    17  H   -0.004246  -0.000555   0.001680  -0.000203   0.532316  -0.028813
    18  H    0.008852   0.000151  -0.000561  -0.000255  -0.028813   0.486940
    19  H   -0.012201   0.001050  -0.000716   0.003931   0.002496  -0.000509
    20  H    0.000049  -0.000162   0.000435   0.000129  -0.004663   0.000362
    21  H    0.000006   0.002413  -0.002892  -0.000751   0.001115   0.000556
    22  H    0.000068  -0.000132   0.000475   0.000118  -0.005031   0.000405
    23  H    0.401673   0.000013  -0.000002   0.000043  -0.000345   0.001057
    24  H    0.403748  -0.000069   0.000029   0.000921   0.000042  -0.000754
    25  H    0.397925  -0.000088   0.000039   0.001119  -0.000102  -0.000518
              19         20         21         22         23         24
     1  C    0.054549  -0.011151   0.075446  -0.009469  -0.001531  -0.002522
     2  C   -0.021119  -0.009768  -0.042130  -0.011157  -0.000476   0.001428
     3  N   -0.004644  -0.015224  -0.068961  -0.015524  -0.000071   0.000198
     4  C   -0.047707  -0.033216   0.041575  -0.035806   0.005339   0.005998
     5  C   -0.040283   0.003356  -0.000052   0.002858  -0.013866   0.001908
     6  C    0.017869  -0.005122   0.004276  -0.005804  -0.007964  -0.001975
     7  C    0.053600   0.020429   0.005459   0.022444   0.001374  -0.004733
     8  C    0.047250   0.002938  -0.005202   0.006288   0.032271  -0.003093
     9  C   -0.165446  -0.000105  -0.003509   0.000171   0.077712   0.002955
    10  C    0.481186  -0.002997   0.004635  -0.002767  -0.066329  -0.017673
    11  C   -0.002426   0.405040   0.353805   0.403293  -0.000012  -0.000028
    12  O   -0.027629   0.000133  -0.000080   0.000126  -0.063445  -0.034763
    13  C   -0.012201   0.000049   0.000006   0.000068   0.401673   0.403748
    14  H    0.001050  -0.000162   0.002413  -0.000132   0.000013  -0.000069
    15  H   -0.000716   0.000435  -0.002892   0.000475  -0.000002   0.000029
    16  H    0.003931   0.000129  -0.000751   0.000118   0.000043   0.000921
    17  H    0.002496  -0.004663   0.001115  -0.005031  -0.000345   0.000042
    18  H   -0.000509   0.000362   0.000556   0.000405   0.001057  -0.000754
    19  H    0.488923  -0.000171  -0.000025  -0.000177   0.000747  -0.008315
    20  H   -0.000171   0.495062  -0.015267  -0.054285  -0.000004  -0.000014
    21  H   -0.000025  -0.015267   0.469573  -0.015735   0.000005  -0.000010
    22  H   -0.000177  -0.054285  -0.015735   0.495160  -0.000001   0.000020
    23  H    0.000747  -0.000004   0.000005  -0.000001   0.460173  -0.019852
    24  H   -0.008315  -0.000014  -0.000010   0.000020  -0.019852   0.566184
    25  H   -0.009227   0.000026  -0.000015  -0.000007  -0.021500  -0.054211
              25
     1  C   -0.003599
     2  C    0.001466
     3  N    0.000154
     4  C    0.008395
     5  C    0.008250
     6  C   -0.002186
     7  C   -0.012337
     8  C   -0.025500
     9  C    0.001576
    10  C    0.007291
    11  C   -0.000108
    12  O   -0.035088
    13  C    0.397925
    14  H   -0.000088
    15  H    0.000039
    16  H    0.001119
    17  H   -0.000102
    18  H   -0.000518
    19  H   -0.009227
    20  H    0.000026
    21  H   -0.000015
    22  H   -0.000007
    23  H   -0.021500
    24  H   -0.054211
    25  H    0.574962
 Mulliken charges:
               1
     1  C   -0.779670
     2  C    0.281695
     3  N    0.212271
     4  C   -0.100480
     5  C    0.332244
     6  C    0.276176
     7  C   -0.108135
     8  C   -0.269142
     9  C   -1.068827
    10  C    0.562715
    11  C   -0.338433
    12  O   -0.157448
    13  C   -0.343198
    14  H    0.235900
    15  H    0.237074
    16  H    0.219313
    17  H    0.187084
    18  H    0.244587
    19  H    0.188992
    20  H    0.224190
    21  H    0.195766
    22  H    0.224468
    23  H    0.214991
    24  H    0.164580
    25  H    0.163285
 Sum of Mulliken charges =   1.00000
 Mulliken charges with hydrogens summed into heavy atoms:
               1
     1  C   -0.543769
     2  C    0.518769
     3  N    0.212271
     4  C   -0.100480
     5  C    0.332244
     6  C    0.495489
     7  C    0.078950
     8  C   -0.024555
     9  C   -1.068827
    10  C    0.751707
    11  C    0.305991
    12  O   -0.157448
    13  C    0.199658
 Electronic spatial extent (au):  <R**2>=           2516.7184
 Charge=              1.0000 electrons
 Dipole moment (field-independent basis, Debye):
    X=             -5.0680    Y=              0.8550    Z=              0.0784  Tot=              5.1402
 Quadrupole moment (field-independent basis, Debye-Ang):
   XX=            -31.7212   YY=            -53.7373   ZZ=            -76.2202
   XY=              7.2884   XZ=              0.1370   YZ=             -0.0686
 Traceless Quadrupole moment (field-independent basis, Debye-Ang):
   XX=             22.1717   YY=              0.1556   ZZ=            -22.3273
   XY=              7.2884   XZ=              0.1370   YZ=             -0.0686
 Octapole moment (field-independent basis, Debye-Ang**2):
  XXX=            -26.7267  YYY=              1.3283  ZZZ=              0.1920  XYY=            -22.9316
  XXY=             10.4499  XXZ=              1.5799  XZZ=              2.3660  YZZ=             -3.0216
  YYZ=             -0.0344  XYZ=              0.0725
 Hexadecapole moment (field-independent basis, Debye-Ang**3):
 XXXX=          -1727.7598 YYYY=           -664.0993 ZZZZ=            -93.1616 XXXY=            110.8153
 XXXZ=              3.3410 YYYX=            -12.5520 YYYZ=             -0.5393 ZZZX=              0.1320
 ZZZY=             -0.0135 XXYY=           -441.1051 XXZZ=           -423.1246 YYZZ=           -155.1760
 XXYZ=             -0.3524 YYXZ=             -0.5071 ZZXY=             12.7948
 N-N= 7.762359748772D+02 E-N=-2.831847939581D+03  KE= 5.550681579469D+02

 **********************************************************************

            Electrostatic Properties Using The SCF Density

 **********************************************************************

       Atomic Center    1 is at  -2.122714  1.959627 -0.000380
       Atomic Center    2 is at  -2.775388  0.790512  0.006880
       Atomic Center    3 is at  -2.189496 -0.379227  0.005909
       Atomic Center    4 is at  -0.874794 -0.394789 -0.003330
       Atomic Center    5 is at  -0.150259  0.745521 -0.010526
       Atomic Center    6 is at  -0.784826  1.931555 -0.008765
       Atomic Center    7 is at  -0.181010 -1.548390 -0.004857
       Atomic Center    8 is at   1.159576 -1.563916 -0.011197
       Atomic Center    9 is at   1.897627 -0.439465 -0.019721
       Atomic Center   10 is at   1.196602  0.710831 -0.016850
       Atomic Center   11 is at  -3.042984 -1.644541  0.015195
       Atomic Center   12 is at   3.268178 -0.550442 -0.014737
       Atomic Center   13 is at   4.047625  0.621500  0.036311
       Atomic Center   14 is at  -2.670009  2.916411  0.001136
       Atomic Center   15 is at  -3.877777  0.817499  0.014200
       Atomic Center   16 is at  -0.234793  2.887715 -0.013827
       Atomic Center   17 is at  -0.684285 -2.528409  0.002149
       Atomic Center   18 is at   1.680673 -2.537373 -0.007203
       Atomic Center   19 is at   1.740657  1.668618 -0.018048
       Atomic Center   20 is at  -2.836439 -2.248234  0.928098
       Atomic Center   21 is at  -4.132802 -1.419749  0.022398
       Atomic Center   22 is at  -2.849345 -2.252831 -0.897463
       Atomic Center   23 is at   5.117883  0.316042  0.050325
       Atomic Center   24 is at   3.835012  1.187472  0.970571
       Atomic Center   25 is at   3.875548  1.240290 -0.872369
 -----------------------------------------------------------------

              Electrostatic Properties (Atomic Units)

 -----------------------------------------------------------------
    Center     Electric         -------- Electric Field --------
               Potential          X             Y             Z
 -----------------------------------------------------------------
    1 Atom    -14.611562     -0.003537      0.014945     -0.000016
    2 Atom    -14.556462     -0.020667      0.008597      0.000114
    3 Atom    -18.132880     -0.013557     -0.010468      0.000122
    4 Atom    -14.573822      0.011206     -0.007067     -0.000083
    5 Atom    -14.613345      0.004084      0.004710     -0.000048
    6 Atom    -14.600771      0.003701      0.014515     -0.000041
    7 Atom    -14.624038     -0.000994     -0.015558      0.000025
    8 Atom    -14.627815      0.004536     -0.016047      0.000048
    9 Atom    -14.572297      0.001873      0.005429      0.000180
   10 Atom    -14.632862      0.012955      0.010133     -0.000072
   11 Atom    -14.555014     -0.005878     -0.010227      0.000064
   12 Atom    -22.204626      0.022062     -0.043045     -0.001175
   13 Atom    -14.600778      0.010348      0.013551      0.000573
   14 Atom     -0.934202     -0.005500      0.002501      0.000022
   15 Atom     -0.915391     -0.006182     -0.005476      0.000066
   16 Atom     -0.933889      0.006830      0.003641     -0.000066
   17 Atom     -0.945455     -0.004020     -0.003842      0.000055
   18 Atom     -0.958655      0.003606     -0.005520     -0.000065
   19 Atom     -0.952091      0.001199      0.006696     -0.000068
   20 Atom     -0.929947      0.004565      0.000185      0.001937
   21 Atom     -0.925642      0.000812      0.010490     -0.000036
   22 Atom     -0.929966      0.004533      0.000161     -0.002009
   23 Atom     -0.991070      0.000888     -0.004012     -0.000116
   24 Atom     -0.989755     -0.000721      0.005881      0.003590
   25 Atom     -0.990176     -0.000431      0.006210     -0.003268
 -----------------------------------------------------------------
 -----------------------------------------------------
    Center         ---- Electric Field Gradient ----
                     XX            YY            ZZ
 -----------------------------------------------------
    1 Atom     -500.754908   -500.844027   -501.266160
    2 Atom     -500.879171   -500.988843   -501.442491
    3 Atom     -812.546304   -812.597690   -812.120390
    4 Atom     -501.038689   -500.594274   -501.146018
    5 Atom     -500.876827   -500.922927   -501.395294
    6 Atom     -501.054996   -501.145443   -501.873949
    7 Atom     -500.755371   -500.852450   -501.210026
    8 Atom     -500.942315   -500.993801   -501.565863
    9 Atom     -501.156229   -500.539368   -501.225365
   10 Atom     -500.823427   -500.817175   -501.173080
   11 Atom     -500.352863   -500.594172   -500.128824
   12 Atom    -1238.211045  -1236.558692  -1235.114908
   13 Atom     -500.350027   -500.615682   -500.179125
   14 Atom       -1.741576     -1.941241     -1.615844
   15 Atom       -2.056665     -1.665292     -1.635558
   16 Atom       -1.756880     -1.952019     -1.637750
   17 Atom       -1.759455     -1.984904     -1.639188
   18 Atom       -1.729429     -1.958368     -1.626198
   19 Atom       -1.764814     -1.975484     -1.633912
   20 Atom       -1.650809     -1.746968     -1.889558
   21 Atom       -1.998852     -1.666699     -1.617668
   22 Atom       -1.648896     -1.748705     -1.889726
   23 Atom       -2.012993     -1.693091     -1.642513
   24 Atom       -1.692216     -1.779447     -1.944689
   25 Atom       -1.687375     -1.800519     -1.930821
 -----------------------------------------------------
 -----------------------------------------------------
    Center         ---- Electric Field Gradient ----
                     XY            XZ            YZ
 -----------------------------------------------------
    1 Atom        0.000816     -0.003218     -0.000961
    2 Atom        0.179416     -0.004317     -0.002330
    3 Atom       -0.091108      0.003394      0.002023
    4 Atom       -0.015478     -0.000416     -0.001291
    5 Atom       -0.034880     -0.002822     -0.000709
    6 Atom       -0.041309     -0.004807     -0.001251
    7 Atom       -0.008723     -0.002981     -0.001239
    8 Atom        0.012554     -0.001566     -0.001566
    9 Atom        0.026404      0.001584     -0.000309
   10 Atom       -0.038940     -0.001205      0.000832
   11 Atom       -0.354775      0.002476      0.003744
   12 Atom       -0.783998     -0.058874     -0.075544
   13 Atom       -0.341720     -0.014689     -0.021158
   14 Atom        0.174552      0.000446     -0.000438
   15 Atom        0.003563      0.002824      0.000054
   16 Atom       -0.175606      0.001019      0.001628
   17 Atom       -0.167286      0.001407      0.002430
   18 Atom        0.165332     -0.000590      0.001400
   19 Atom       -0.170452      0.000272      0.000370
   20 Atom        0.032232     -0.068672      0.170534
   21 Atom        0.084820      0.002502     -0.000478
   22 Atom        0.030146      0.065117     -0.171701
   23 Atom        0.099605     -0.005047      0.000630
   24 Atom        0.030096      0.070469     -0.170241
   25 Atom        0.026333     -0.057840      0.180205
 -----------------------------------------------------
 -----------------------------------------------------
    Center         ---- Electric Field Gradient ----
                   ----       Eigenvalues       ----
 -----------------------------------------------------
    1 Atom     -501.266182   -500.844033   -500.754880
    2 Atom     -501.442526   -501.121614   -500.746364
    3 Atom     -812.666683   -812.477342   -812.120360
    4 Atom     -501.146023   -501.039225   -500.593733
    5 Atom     -501.395311   -500.941676   -500.858060
    6 Atom     -501.873980   -501.161458   -501.038950
    7 Atom     -501.210051   -500.853221   -500.754575
    8 Atom     -501.565871   -500.996696   -500.939411
    9 Atom     -501.225403   -501.157320   -500.538240
   10 Atom     -501.173086   -500.859366   -500.781231
   11 Atom     -500.848275   -500.128797   -500.098786
   12 Atom    -1238.525829  -1236.247971  -1235.110846
   13 Atom     -500.850471   -500.178137   -500.116226
   14 Atom       -2.042494     -1.640325     -1.615842
   15 Atom       -2.056716     -1.665260     -1.635539
   16 Atom       -2.055350     -1.653559     -1.637741
   17 Atom       -2.073918     -1.670459     -1.639170
   18 Atom       -2.044996     -1.642807     -1.626192
   19 Atom       -2.070523     -1.669776     -1.633912
   20 Atom       -2.018425     -1.645505     -1.623404
   21 Atom       -2.019274     -1.646293     -1.617651
   22 Atom       -2.018436     -1.645497     -1.623394
   23 Atom       -2.041534     -1.664641     -1.642422
   24 Atom       -2.066618     -1.686703     -1.663031
   25 Atom       -2.067565     -1.687194     -1.663956
 -----------------------------------------------------
 -----------------------------------------------------
    Center         ---- Electric Field Gradient ----
                       ( tensor representation )
                   3XX-RR        3YY-RR        3ZZ-RR
 -----------------------------------------------------
    1 Atom        0.200124      0.111004     -0.311128
    2 Atom        0.224331      0.114659     -0.338989
    3 Atom       -0.124843     -0.176228      0.301071
    4 Atom       -0.112362      0.332053     -0.219691
    5 Atom        0.188189      0.142089     -0.330278
    6 Atom        0.303133      0.212687     -0.515820
    7 Atom        0.183911      0.086833     -0.270744
    8 Atom        0.225012      0.173525     -0.398537
    9 Atom       -0.182575      0.434286     -0.251711
   10 Atom        0.114467      0.120719     -0.235186
   11 Atom        0.005757     -0.235552      0.229796
   12 Atom       -1.582830      0.069523      1.513307
   13 Atom        0.031584     -0.234071      0.202487
   14 Atom        0.024645     -0.175021      0.150376
   15 Atom       -0.270826      0.120546      0.150280
   16 Atom        0.025336     -0.169803      0.144466
   17 Atom        0.035060     -0.190388      0.155327
   18 Atom        0.041903     -0.187037      0.145134
   19 Atom        0.026590     -0.184081      0.157491
   20 Atom        0.111636      0.015477     -0.127113
   21 Atom       -0.237779      0.094374      0.143405
   22 Atom        0.113546      0.013737     -0.127283
   23 Atom       -0.230127      0.089775      0.140352
   24 Atom        0.113235      0.026004     -0.139239
   25 Atom        0.118863      0.005719     -0.124583
 -----------------------------------------------------
 -----------------------------------------------------
    Center         ---- Electric Field Gradient ----
                       ( tensor representation )
                   ----       Eigenvalues       ----
 -----------------------------------------------------
    1 Atom       -0.311150      0.110999      0.200151
    2 Atom       -0.339025     -0.018113      0.357138
    3 Atom       -0.245222     -0.055880      0.301102
    4 Atom       -0.219696     -0.112898      0.332594
    5 Atom       -0.330295      0.123340      0.206955
    6 Atom       -0.515851      0.196671      0.319180
    7 Atom       -0.270768      0.086061      0.184707
    8 Atom       -0.398545      0.170630      0.227915
    9 Atom       -0.251748     -0.183666      0.435414
   10 Atom       -0.235191      0.078528      0.156663
   11 Atom       -0.489656      0.229823      0.259833
   12 Atom       -1.897614      0.380245      1.517369
   13 Atom       -0.468859      0.203474      0.265385
   14 Atom       -0.276274      0.125895      0.150378
   15 Atom       -0.270878      0.120578      0.150299
   16 Atom       -0.273133      0.128658      0.144475
   17 Atom       -0.279402      0.124057      0.155346
   18 Atom       -0.273664      0.128524      0.145140
   19 Atom       -0.279119      0.121627      0.157492
   20 Atom       -0.255980      0.116939      0.139041
   21 Atom       -0.258202      0.114780      0.143422
   22 Atom       -0.255993      0.116945      0.139048
   23 Atom       -0.258668      0.118225      0.140443
   24 Atom       -0.261168      0.118748      0.142420
   25 Atom       -0.261327      0.119044      0.142283
 -----------------------------------------------------
 Calling FoFJK, ICntrl=      2127 FMM=F ISym2X=0 I1Cent= 0 IOpClX= 0 NMat=1 NMatS=1 NMatT=0.
 ***** Axes restored to original set *****
 -------------------------------------------------------------------
 Center     Atomic                   Forces (Hartrees/Bohr)
 Number     Number              X              Y              Z
 -------------------------------------------------------------------
      1        6          -0.012421708   -0.053689958    0.021199812
      2        6           0.002974656    0.012934128    0.080897392
      3        7           0.006685720    0.028842342    0.062372409
      4        6           0.008437750    0.035606216   -0.007561769
      5        6          -0.005193936   -0.022651885   -0.010597136
      6        6          -0.016057357   -0.069209280   -0.004600273
      7        6           0.016988040    0.073475460    0.003955907
      8        6           0.017651959    0.074671454   -0.022763172
      9        6          -0.008538994   -0.029886437   -0.058562074
     10        6          -0.011848280   -0.051123259   -0.064053486
     11        6           0.001782855    0.007645334    0.001178830
     12        8           0.004556330    0.016665117    0.026996556
     13        6          -0.004576499   -0.017811326   -0.013946226
     14        1           0.002999219    0.012910164   -0.004431878
     15        1           0.001228144    0.005334171   -0.012557332
     16        1           0.002816289    0.012054798    0.001263913
     17        1          -0.002867538   -0.012393541   -0.002901323
     18        1          -0.002182473   -0.010039310    0.005706255
     19        1           0.002290492    0.009339219    0.007005478
     20        1           0.009798850   -0.012482091   -0.001312395
     21        1          -0.001960562   -0.008544213   -0.017251897
     22        1          -0.014278870   -0.006911579   -0.001326030
     23        1           0.000501033    0.000243393    0.015951025
     24        1           0.011286906   -0.000259426   -0.002549372
     25        1          -0.010072026    0.005280508   -0.002113217
 -------------------------------------------------------------------
 Cartesian Forces:  Max     0.080897392 RMS     0.025681851

 GradGradGradGradGradGradGradGradGradGradGradGradGradGradGradGradGradGrad
 Berny optimization.
 FormGI is forming the generalized inverse of G from B-inverse, IUseBI=4.
 Internal  Forces:  Max     0.081149988 RMS     0.020090949
 Search for a local minimum.
 Step number   1 out of a maximum of  134
 All quantities printed in internal units (Hartrees-Bohrs-Radians)
 Mixed Optimization -- RFO/linear search
 Second derivative matrix not updated -- first step.
 ITU=  0
     Eigenvalues ---    0.00230   0.01581   0.01770   0.02022   0.02647
     Eigenvalues ---    0.02778   0.02787   0.02787   0.02792   0.02798
     Eigenvalues ---    0.02830   0.02836   0.02849   0.02855   0.02858
     Eigenvalues ---    0.02895   0.02900   0.02903   0.06882   0.06918
     Eigenvalues ---    0.10207   0.10669   0.16000   0.16000   0.16000
     Eigenvalues ---    0.16000   0.16000   0.16000   0.16000   0.16000
     Eigenvalues ---    0.16000   0.16000   0.16000   0.16000   0.22088
     Eigenvalues ---    0.22433   0.23368   0.23650   0.24614   0.24936
     Eigenvalues ---    0.24997   0.25000   0.25000   0.29769   0.32203
     Eigenvalues ---    0.32205   0.32276   0.32303   0.32307   0.32311
     Eigenvalues ---    0.33226   0.33343   0.33380   0.33434   0.33493
     Eigenvalues ---    0.33514   0.44256   0.45966   0.49422   0.50019
     Eigenvalues ---    0.52180   0.53172   0.55713   0.55799   0.55996
     Eigenvalues ---    0.56665   0.57091   0.61549   0.63573
 RFO step:  Lambda=-8.43433605D-02 EMin= 2.30000000D-03
 Linear search not attempted -- first point.
 Maximum step size (   0.300) exceeded in Quadratic search.
    -- Step size scaled by   0.768
 Iteration  1 RMS(Cart)=  0.05210255 RMS(Int)=  0.00044178
 Iteration  2 RMS(Cart)=  0.00062861 RMS(Int)=  0.00009471
 Iteration  3 RMS(Cart)=  0.00000026 RMS(Int)=  0.00009471
 Variable       Old X    -DE/DX   Delta X   Delta X   Delta X     New X
                                 (Linear)    (Quad)   (Total)
    R1        2.53030   0.05748   0.00000   0.06467   0.06444   2.59475
    R2        2.52885   0.05341   0.00000   0.06061   0.06046   2.58931
    R3        2.08296  -0.01348   0.00000  -0.02471  -0.02471   2.05825
    R4        2.47226   0.03999   0.00000   0.04099   0.04091   2.51317
    R5        2.08388  -0.01229   0.00000  -0.02257  -0.02257   2.06132
    R6        2.48466   0.07429   0.00000   0.08092   0.08107   2.56573
    R7        2.88426  -0.02738   0.00000  -0.05501  -0.05501   2.82925
    R8        2.55310   0.08115   0.00000   0.10269   0.10298   2.65607
    R9        2.54386   0.06965   0.00000   0.08392   0.08391   2.62778
   R10        2.54191   0.07241   0.00000   0.08706   0.08713   2.62904
   R11        2.54607   0.06904   0.00000   0.08368   0.08374   2.62981
   R12        2.08453  -0.01169   0.00000  -0.02148  -0.02148   2.06306
   R13        2.53354   0.03935   0.00000   0.04519   0.04513   2.57867
   R14        2.08194  -0.01284   0.00000  -0.02350  -0.02350   2.05844
   R15        2.54179   0.07256   0.00000   0.08459   0.08453   2.62632
   R16        2.08657  -0.01173   0.00000  -0.02162  -0.02162   2.06495
   R17        2.54561   0.04300   0.00000   0.05076   0.05076   2.59638
   R18        2.59846  -0.02430   0.00000  -0.03191  -0.03191   2.56656
   R19        2.08158  -0.01170   0.00000  -0.02140  -0.02140   2.06017
   R20        2.10473  -0.01512   0.00000  -0.02855  -0.02855   2.07618
   R21        2.10286  -0.01593   0.00000  -0.03002  -0.03002   2.07284
   R22        2.10470  -0.01511   0.00000  -0.02854  -0.02854   2.07616
   R23        2.66149   0.01250   0.00000   0.01821   0.01821   2.67970
   R24        2.10342  -0.01554   0.00000  -0.02930  -0.02930   2.07412
   R25        2.10293  -0.01100   0.00000  -0.02072  -0.02072   2.08221
   R26        2.10279  -0.01095   0.00000  -0.02062  -0.02062   2.08217
    A1        2.05900   0.00746   0.00000   0.01211   0.01176   2.07077
    A2        2.11282  -0.00757   0.00000  -0.01813  -0.01795   2.09487
    A3        2.11136   0.00011   0.00000   0.00601   0.00619   2.11755
    A4        2.16807  -0.00822   0.00000  -0.02586  -0.02612   2.14195
    A5        2.05551   0.01041   0.00000   0.03271   0.03284   2.08834
    A6        2.05961  -0.00218   0.00000  -0.00685  -0.00672   2.05289
    A7        2.04697   0.01989   0.00000   0.04799   0.04809   2.09506
    A8        2.08381  -0.00708   0.00000  -0.01743  -0.01748   2.06633
    A9        2.15241  -0.01280   0.00000  -0.03056  -0.03061   2.12180
   A10        2.12501  -0.01650   0.00000  -0.03305  -0.03272   2.09230
   A11        2.12408   0.00840   0.00000   0.01170   0.01144   2.13552
   A12        2.03409   0.00810   0.00000   0.02136   0.02128   2.05537
   A13        2.08426  -0.00728   0.00000  -0.01294  -0.01271   2.07156
   A14        2.11109  -0.00816   0.00000  -0.01537  -0.01535   2.09575
   A15        2.08783   0.01544   0.00000   0.02831   0.02805   2.11588
   A16        2.08305   0.00466   0.00000   0.01175   0.01169   2.09474
   A17        2.07186   0.00212   0.00000   0.00810   0.00813   2.07998
   A18        2.12828  -0.00678   0.00000  -0.01985  -0.01982   2.10846
   A19        2.12383  -0.00571   0.00000  -0.01244  -0.01244   2.11139
   A20        2.12570   0.00042   0.00000  -0.00142  -0.00142   2.12428
   A21        2.03365   0.00529   0.00000   0.01386   0.01386   2.04751
   A22        2.14007  -0.00342   0.00000  -0.01189  -0.01195   2.12812
   A23        2.07384   0.00238   0.00000   0.00805   0.00808   2.08192
   A24        2.06928   0.00104   0.00000   0.00384   0.00387   2.07315
   A25        2.01341   0.01909   0.00000   0.04089   0.04089   2.05430
   A26        2.07080  -0.01540   0.00000  -0.03387  -0.03387   2.03692
   A27        2.19890  -0.00369   0.00000  -0.00698  -0.00698   2.19192
   A28        2.14387  -0.00989   0.00000  -0.02255  -0.02243   2.12145
   A29        2.06163   0.00269   0.00000   0.00419   0.00413   2.06575
   A30        2.07768   0.00720   0.00000   0.01836   0.01830   2.09598
   A31        1.92904  -0.00277   0.00000  -0.00880  -0.00895   1.92009
   A32        1.96083  -0.01393   0.00000  -0.04357  -0.04381   1.91702
   A33        1.92897  -0.00276   0.00000  -0.00878  -0.00893   1.92004
   A34        1.86064   0.00883   0.00000   0.02795   0.02770   1.88835
   A35        1.92131   0.00270   0.00000   0.00811   0.00805   1.92936
   A36        1.86075   0.00883   0.00000   0.02793   0.02769   1.88844
   A37        2.07669  -0.00032   0.00000  -0.00074  -0.00074   2.07595
   A38        1.87994  -0.00650   0.00000  -0.02045  -0.02040   1.85954
   A39        1.92612   0.00401   0.00000   0.01261   0.01260   1.93873
   A40        1.92575   0.00437   0.00000   0.01375   0.01375   1.93950
   A41        1.88884   0.00123   0.00000   0.00378   0.00383   1.89267
   A42        1.88765   0.00113   0.00000   0.00354   0.00359   1.89124
   A43        1.95326  -0.00449   0.00000  -0.01402  -0.01407   1.93919
    D1       -0.00037   0.00000   0.00000   0.00000   0.00000  -0.00037
    D2        3.14116   0.00001   0.00000   0.00007   0.00007   3.14123
    D3       -3.14131  -0.00002   0.00000  -0.00013  -0.00013  -3.14143
    D4        0.00022  -0.00001   0.00000  -0.00005  -0.00005   0.00017
    D5        0.00079  -0.00002   0.00000  -0.00014  -0.00014   0.00065
    D6       -3.14058  -0.00002   0.00000  -0.00017  -0.00018  -3.14076
    D7       -3.14146  -0.00001   0.00000  -0.00002  -0.00002  -3.14148
    D8        0.00035  -0.00001   0.00000  -0.00006  -0.00006   0.00030
    D9       -0.00046   0.00002   0.00000   0.00012   0.00012  -0.00035
   D10        3.14125   0.00003   0.00000   0.00017   0.00017   3.14142
   D11        3.14119   0.00000   0.00000   0.00004   0.00004   3.14124
   D12       -0.00028   0.00001   0.00000   0.00009   0.00009  -0.00018
   D13        0.00087  -0.00002   0.00000  -0.00012  -0.00012   0.00076
   D14        3.14137   0.00004   0.00000   0.00022   0.00021   3.14159
   D15       -3.14084  -0.00003   0.00000  -0.00017  -0.00017  -3.14101
   D16       -0.00035   0.00003   0.00000   0.00017   0.00016  -0.00018
   D17       -2.07610  -0.00017   0.00000  -0.00085  -0.00092  -2.07702
   D18       -0.00022   0.00000   0.00000  -0.00002  -0.00002  -0.00024
   D19        2.07575   0.00016   0.00000   0.00080   0.00088   2.07663
   D20        1.06562  -0.00016   0.00000  -0.00080  -0.00088   1.06475
   D21        3.14150   0.00000   0.00000   0.00003   0.00003   3.14153
   D22       -1.06572   0.00017   0.00000   0.00085   0.00093  -1.06479
   D23       -0.00046   0.00000   0.00000   0.00000   0.00000  -0.00046
   D24        3.13890   0.00008   0.00000   0.00047   0.00046   3.13936
   D25       -3.14101  -0.00006   0.00000  -0.00032  -0.00031  -3.14133
   D26       -0.00165   0.00002   0.00000   0.00015   0.00015  -0.00150
   D27       -3.13889  -0.00007   0.00000  -0.00048  -0.00048  -3.13937
   D28       -0.00063   0.00002   0.00000   0.00010   0.00009  -0.00054
   D29        0.00166  -0.00003   0.00000  -0.00019  -0.00019   0.00147
   D30        3.13993   0.00007   0.00000   0.00039   0.00038   3.14031
   D31       -0.00040   0.00003   0.00000   0.00015   0.00015  -0.00025
   D32        3.14096   0.00003   0.00000   0.00020   0.00020   3.14116
   D33       -3.13980  -0.00002   0.00000  -0.00025  -0.00026  -3.14005
   D34        0.00157  -0.00002   0.00000  -0.00021  -0.00021   0.00136
   D35        0.00290  -0.00010   0.00000  -0.00062  -0.00062   0.00228
   D36       -3.13692  -0.00015   0.00000  -0.00105  -0.00106  -3.13798
   D37       -3.14092  -0.00005   0.00000  -0.00021  -0.00020  -3.14112
   D38        0.00244  -0.00010   0.00000  -0.00064  -0.00064   0.00180
   D39       -0.00291   0.00013   0.00000   0.00072   0.00071  -0.00220
   D40        3.13645   0.00019   0.00000   0.00111   0.00109   3.13754
   D41       -3.14134   0.00004   0.00000   0.00020   0.00019  -3.14115
   D42       -0.00198   0.00010   0.00000   0.00058   0.00057  -0.00141
   D43        0.00380  -0.00011   0.00000  -0.00095  -0.00097   0.00284
   D44        3.13244   0.00037   0.00000   0.00241   0.00239   3.13483
   D45       -3.13556  -0.00017   0.00000  -0.00134  -0.00136  -3.13692
   D46       -0.00693   0.00031   0.00000   0.00202   0.00201  -0.00492
   D47       -0.00381   0.00012   0.00000   0.00093   0.00095  -0.00287
   D48        3.13600   0.00016   0.00000   0.00135   0.00138   3.13737
   D49       -3.13135  -0.00032   0.00000  -0.00253  -0.00257  -3.13392
   D50        0.00846  -0.00027   0.00000  -0.00211  -0.00214   0.00632
   D51       -3.09295  -0.00085   0.00000  -0.00574  -0.00569  -3.09865
   D52        0.03417  -0.00015   0.00000  -0.00162  -0.00167   0.03250
   D53        3.12400  -0.00005   0.00000  -0.00028  -0.00028   3.12373
   D54        1.06544   0.00006   0.00000   0.00018   0.00026   1.06570
   D55       -1.10225  -0.00008   0.00000  -0.00039  -0.00048  -1.10273
         Item               Value     Threshold  Converged?
 Maximum Force            0.081150     0.000450     NO 
 RMS     Force            0.020091     0.000300     NO 
 Maximum Displacement     0.185014     0.001800     NO 
 RMS     Displacement     0.051941     0.001200     NO 
 Predicted change in Energy=-4.368437D-02
 GradGradGradGradGradGradGradGradGradGradGradGradGradGradGradGradGradGrad

                          Input orientation:                          
 ---------------------------------------------------------------------
 Center     Atomic      Atomic             Coordinates (Angstroms)
 Number     Number       Type             X           Y           Z
 ---------------------------------------------------------------------
      1          6           0       -0.478878   -1.685961    2.867962
      2          6           0       -0.197437   -0.471877    3.444283
      3          7           0        0.054950    0.621536    2.730545
      4          6           0        0.041292    0.565855    1.374032
      5          6           0       -0.240903   -0.648977    0.725903
      6          6           0       -0.501077   -1.774736    1.500820
      7          6           0        0.298138    1.678790    0.580898
      8          6           0        0.274474    1.591380   -0.780667
      9          6           0       -0.002110    0.397367   -1.435909
     10          6           0       -0.258602   -0.710115   -0.664278
     11          6           0        0.350109    1.895336    3.459825
     12          8           0       -0.005891    0.432828   -2.793604
     13          6           0       -0.334218   -0.746093   -3.509963
     14          1           0       -0.679258   -2.553631    3.495105
     15          1           0       -0.175791   -0.382501    4.531202
     16          1           0       -0.724672   -2.735703    1.033479
     17          1           0        0.522887    2.652023    1.015445
     18          1           0        0.476679    2.484301   -1.377200
     19          1           0       -0.484085   -1.665891   -1.137755
     20          1           0       -0.400747    2.656318    3.206465
     21          1           0        0.310617    1.722275    4.542265
     22          1           0        1.358654    2.249142    3.205464
     23          1           0       -0.293365   -0.485940   -4.575480
     24          1           0       -1.356143   -1.082632   -3.272259
     25          1           0        0.400877   -1.544393   -3.319179
 ---------------------------------------------------------------------
                    Distance matrix (angstroms):
                    1          2          3          4          5
     1  C    0.000000
     2  C    1.373082   0.000000
     3  N    2.372424   1.329914   0.000000
     4  C    2.751923   2.328050   1.357724   0.000000
     5  C    2.391732   2.724489   2.391720   1.405533   0.000000
     6  C    1.370201   2.359383   2.750183   2.405952   1.391229
     7  C    4.141976   3.615237   2.407885   1.390559   2.393761
     8  C    4.961956   4.725456   3.649302   2.397667   2.748558
     9  C    4.805297   4.960848   4.172871   2.815323   2.413565
    10  C    3.671174   4.115917   3.660115   2.423375   1.391638
    11  C    3.723333   2.429763   1.497176   2.492674   3.781158
    12  O    6.063523   6.306062   5.527706   4.170025   3.689507
    13  C    6.448427   6.960994   6.400453   5.071057   4.238007
    14  H    1.089179   2.137389   3.347431   3.840486   3.389445
    15  H    2.134768   1.090802   2.074535   3.303669   3.815173
    16  H    2.127840   3.348860   3.841731   3.406312   2.164037
    17  H    4.822184   4.022048   2.698780   2.170856   3.400561
    18  H    6.027070   5.695622   4.530046   3.382199   3.841276
    19  H    4.005771   4.743723   4.526216   3.400851   2.136931
    20  H    4.356154   3.143803   2.138808   2.814826   4.135664
    21  H    3.878488   2.505592   2.135257   3.383422   4.526769
    22  H    4.356084   3.143628   2.138760   2.814790   4.135928
    23  H    7.541837   8.020349   7.397691   6.051030   5.304149
    24  H    6.231847   6.843066   6.397580   5.124290   4.173382
    25  H    6.250979   6.874060   6.435067   5.158360   4.192415
                    6          7          8          9         10
     6  C    0.000000
     7  C    3.662218   0.000000
     8  C    4.139735   1.364573   0.000000
     9  C    3.686649   2.408258   1.389787   0.000000
    10  C    2.424843   2.750871   2.365291   1.373943   0.000000
    11  C    4.246369   2.887528   4.252045   5.131880   4.916009
    12  O    4.853928   3.610002   2.339393   1.358163   2.429858
    13  C    5.117997   4.797403   3.644632   2.391546   2.846916
    14  H    2.148394   5.230802   6.030999   5.786348   4.569023
    15  H    3.350723   4.480896   5.684620   6.020364   5.206458
    16  H    1.091723   4.553978   4.797194   4.054146   2.683767
    17  H    4.569495   1.089278   2.100641   3.371682   3.838772
    18  H    5.232437   2.124823   1.092723   2.141956   3.354577
    19  H    2.640874   3.840902   3.363442   2.139680   1.090197
    20  H    4.749056   2.887491   4.181775   5.178166   5.131835
    21  H    4.705138   3.961626   5.324665   6.131211   5.774828
    22  H    4.749316   2.887619   4.182982   5.179102   5.132994
    23  H    6.214947   5.623537   4.363291   3.274441   3.917775
    24  H    4.898207   5.020848   4.002160   2.719555   2.853932
    25  H    4.909071   5.060639   4.036471   2.734874   2.859970
                   11         12         13         14         15
    11  C    0.000000
    12  O    6.432033   0.000000
    13  C    7.484878   1.418035   0.000000
    14  H    4.566634   6.994299   7.242735   0.000000
    15  H    2.571568   7.372002   8.050940   2.457799   0.000000
    16  H    5.337493   5.020238   4.975325   2.468768   4.251223
    17  H    2.564648   4.439965   5.723735   5.890051   4.696492
    18  H    4.874393   2.539216   3.954956   7.103259   6.599506
    19  H    5.875029   2.715718   2.548697   4.721183   5.820585
    20  H    1.098667   6.410978   7.529358   5.225366   3.322644
    21  H    1.096898   7.455054   8.446717   4.512180   2.160278
    22  H    1.098654   6.414811   7.545476   5.225284   3.322296
    23  H    8.405395   2.025305   1.097577   8.340180   9.108029
    24  H    7.556491   2.085404   1.101859   6.958392   7.923220
    25  H    7.601922   2.085927   1.101837   6.972785   7.956823
                   16         17         18         19         20
    16  H    0.000000
    17  H    5.530309   0.000000
    18  H    5.873930   2.398962   0.000000
    19  H    2.432413   4.928960   4.266672   0.000000
    20  H    5.822430   2.377748   4.670058   6.128677   0.000000
    21  H    5.766886   3.653484   5.970622   6.661370   1.778437
    22  H    5.822924   2.378445   4.672685   6.130801   1.805903
    23  H    6.058702   6.463090   4.432188   3.639590   8.393091
    24  H    4.655188   5.988557   4.435481   2.378399   7.540981
    25  H    4.650990   6.034382   4.472964   2.357230   7.802090
                   21         22         23         24         25
    21  H    0.000000
    22  H    1.778484   0.000000
    23  H    9.400760   8.411476   0.000000
    24  H    8.468316   7.773785   1.784355   0.000000
    25  H    8.513612   7.607839   1.783420   1.817290   0.000000
 Stoichiometry    C11H12NO(1+)
 Framework group  C1[X(C11H12NO)]
 Deg. of freedom    69
 Full point group                 C1      NOp   1
 Largest Abelian subgroup         C1      NOp   1
[...]
    16  H    0.002694  -0.010630   0.002178   0.463049   0.000143  -0.000169
    17  H   -0.002048  -0.000580   0.001372   0.000143   0.533617  -0.028131
    18  H    0.005083   0.000100  -0.000353  -0.000169  -0.028131   0.472088
    19  H   -0.007060   0.001082  -0.000647   0.000738   0.001975  -0.000250
    20  H    0.000003   0.000020   0.000034   0.000036  -0.007337   0.000854
    21  H    0.000054   0.002212  -0.000857  -0.000651   0.003581   0.000203
    22  H    0.000003   0.000021   0.000031   0.000035  -0.007339   0.000854
    23  H    0.402404   0.000005  -0.000004   0.000166  -0.000202   0.001151
    24  H    0.400145  -0.000064   0.000029   0.000843   0.000013  -0.000880
    25  H    0.400096  -0.000065   0.000029   0.000844   0.000014  -0.000884
              19         20         21         22         23         24
     1  C    0.035695  -0.006617   0.060413  -0.006576  -0.001085  -0.001271
     2  C   -0.015751  -0.014590  -0.022392  -0.014627  -0.000373   0.000944
     3  N   -0.005864  -0.021476  -0.075317  -0.021465  -0.000074   0.000248
     4  C   -0.040020  -0.015031   0.022144  -0.015101   0.005128   0.000761
     5  C   -0.053142  -0.013366   0.022347  -0.013292  -0.002092   0.002772
     6  C    0.006962   0.000572  -0.003470   0.000541  -0.005516  -0.000218
     7  C    0.037184   0.013175   0.001811   0.013175  -0.005023  -0.004109
     8  C    0.049750   0.025737  -0.019092   0.025710   0.020083  -0.024501
     9  C   -0.069173  -0.003423  -0.000417  -0.003394   0.040783  -0.020235
    10  C    0.431778  -0.013163   0.013171  -0.013129  -0.023393   0.027069
    11  C   -0.002201   0.407284   0.369364   0.407265  -0.000016  -0.000063
    12  O   -0.026853   0.000110  -0.000065   0.000111  -0.058781  -0.029223
    13  C   -0.007060   0.000003   0.000054   0.000003   0.402404   0.400145
    14  H    0.001082   0.000020   0.002212   0.000021   0.000005  -0.000064
    15  H   -0.000647   0.000034  -0.000857   0.000031  -0.000004   0.000029
    16  H    0.000738   0.000036  -0.000651   0.000035   0.000166   0.000843
    17  H    0.001975  -0.007337   0.003581  -0.007339  -0.000202   0.000013
    18  H   -0.000250   0.000854   0.000203   0.000854   0.001151  -0.000880
    19  H    0.485290  -0.000203   0.000063  -0.000203   0.001733  -0.008614
    20  H   -0.000203   0.508444  -0.014884  -0.061253  -0.000001  -0.000017
    21  H    0.000063  -0.014884   0.487479  -0.014882   0.000003  -0.000015
    22  H   -0.000203  -0.061253  -0.014882   0.508428  -0.000001   0.000029
    23  H    0.001733  -0.000001   0.000003  -0.000001   0.450544  -0.018952
    24  H   -0.008614  -0.000017  -0.000015   0.000029  -0.018952   0.554635
    25  H   -0.008624   0.000029  -0.000015  -0.000017  -0.018980  -0.054270
              25
     1  C   -0.001259
     2  C    0.000946
     3  N    0.000247
     4  C    0.000728
     5  C    0.003004
     6  C   -0.000122
     7  C   -0.004105
     8  C   -0.024674
     9  C   -0.020980
    10  C    0.027769
    11  C   -0.000063
    12  O   -0.029251
    13  C    0.400096
    14  H   -0.000065
    15  H    0.000029
    16  H    0.000844
    17  H    0.000014
    18  H   -0.000884
    19  H   -0.008624
    20  H    0.000029
    21  H   -0.000015
    22  H   -0.000017
    23  H   -0.018980
    24  H   -0.054270
    25  H    0.554489
 Mulliken charges:
               1
     1  C   -0.677433
     2  C    0.223275
     3  N    0.219716
     4  C   -0.545775
     5  C    0.379532
     6  C   -0.068821
     7  C    0.124030
     8  C   -0.682698
     9  C   -0.667409
    10  C    0.946379
    11  C   -0.280092
    12  O   -0.129082
    13  C   -0.327453
    14  H    0.238904
    15  H    0.237282
    16  H    0.210454
    17  H    0.202438
    18  H    0.248498
    19  H    0.186353
    20  H    0.215065
    21  H    0.169210
    22  H    0.215075
    23  H    0.212493
    24  H    0.174946
    25  H    0.175114
 Sum of Mulliken charges =   1.00000
 Mulliken charges with hydrogens summed into heavy atoms:
               1
     1  C   -0.438529
     2  C    0.460557
     3  N    0.219716
     4  C   -0.545775
     5  C    0.379532
     6  C    0.141633
     7  C    0.326467
     8  C   -0.434201
     9  C   -0.667409
    10  C    1.132732
    11  C    0.319257
    12  O   -0.129082
    13  C    0.235100
 Electronic spatial extent (au):  <R**2>=           2616.6411
 Charge=              1.0000 electrons
 Dipole moment (field-independent basis, Debye):
    X=             -4.2791    Y=              0.7921    Z=              0.0011  Tot=              4.3518
 Quadrupole moment (field-independent basis, Debye-Ang):
   XX=            -28.8316   YY=            -53.1925   ZZ=            -77.4201
   XY=              6.7563   XZ=              0.0028   YZ=             -0.0011
 Traceless Quadrupole moment (field-independent basis, Debye-Ang):
   XX=             24.3165   YY=             -0.0445   ZZ=            -24.2720
   XY=              6.7563   XZ=              0.0028   YZ=             -0.0011
 Octapole moment (field-independent basis, Debye-Ang**2):
  XXX=            -15.4982  YYY=              0.6398  ZZZ=              0.0009  XYY=            -19.0956
  XXY=             15.4452  XXZ=              0.0260  XZZ=              3.6318  YZZ=             -3.2639
  YYZ=             -0.0022  XYZ=              0.0002
 Hexadecapole moment (field-independent basis, Debye-Ang**3):
 XXXX=          -1756.7039 YYYY=           -696.2957 ZZZZ=            -95.1169 XXXY=            100.1732
 XXXZ=              0.0776 YYYX=            -13.9972 YYYZ=             -0.0054 ZZZX=             -0.0053
 ZZZY=             -0.0011 XXYY=           -457.0379 XXZZ=           -440.9427 YYZZ=           -163.6229
 XXYZ=             -0.0124 YYXZ=             -0.0061 ZZXY=             13.9084
 N-N= 7.586698086967D+02 E-N=-2.795970703183D+03  KE= 5.538913594384D+02

 **********************************************************************

            Electrostatic Properties Using The SCF Density

 **********************************************************************

       Atomic Center    1 is at  -2.279150  1.962935 -0.000035
       Atomic Center    2 is at  -2.924008  0.729371  0.000083
       Atomic Center    3 is at  -2.239811 -0.422957  0.000090
       Atomic Center    4 is at  -0.855899 -0.439307 -0.000025
       Atomic Center    5 is at  -0.152007  0.804391 -0.000100
       Atomic Center    6 is at  -0.902180  2.001441 -0.000122
       Atomic Center    7 is at  -0.123331 -1.647938 -0.000079
       Atomic Center    8 is at   1.245854 -1.613120 -0.000159
       Atomic Center    9 is at   1.962223 -0.382555 -0.000188
       Atomic Center   10 is at   1.262967  0.810305 -0.000202
       Atomic Center   11 is at  -2.992613 -1.697823  0.000217
       Atomic Center   12 is at   3.293062 -0.511425 -0.000296
       Atomic Center   13 is at   4.117214  0.664269  0.000523
       Atomic Center   14 is at  -2.874869  2.865514 -0.000049
       Atomic Center   15 is at  -4.002000  0.648429  0.000178
       Atomic Center   16 is at  -0.382061  2.952583 -0.000203
       Atomic Center   17 is at  -0.623720 -2.605442 -0.000051
       Atomic Center   18 is at   1.821396 -2.530836 -0.000205
       Atomic Center   19 is at   1.772630  1.763835 -0.000354
       Atomic Center   20 is at  -2.746119 -2.271102  0.893520
       Atomic Center   21 is at  -4.055542 -1.472979  0.000352
       Atomic Center   22 is at  -2.746356 -2.271144 -0.893125
       Atomic Center   23 is at   5.140957  0.299947  0.001491
       Atomic Center   24 is at   3.936865  1.260734  0.898688
       Atomic Center   25 is at   3.938582  1.260753 -0.897980
 -----------------------------------------------------------------

              Electrostatic Properties (Atomic Units)

 -----------------------------------------------------------------
    Center     Electric         -------- Electric Field --------
               Potential          X             Y             Z
 -----------------------------------------------------------------
    1 Atom    -14.600287     -0.000515      0.004427      0.000000
    2 Atom    -14.549107     -0.007218      0.010030      0.000000
    3 Atom    -18.133409     -0.002059     -0.004543      0.000000
    4 Atom    -14.551320      0.010842     -0.000594     -0.000001
    5 Atom    -14.587214      0.002011      0.001349      0.000000
    6 Atom    -14.589704      0.001613      0.001974      0.000000
    7 Atom    -14.608552      0.000909     -0.002732      0.000000
    8 Atom    -14.614215      0.002198     -0.002149      0.000000
    9 Atom    -14.556644     -0.011729      0.000691      0.000001
   10 Atom    -14.620660      0.000968      0.002185     -0.000001
   11 Atom    -14.571808     -0.005278     -0.009171      0.000001
   12 Atom    -22.198239      0.026381     -0.040556     -0.000022
   13 Atom    -14.601133      0.008050      0.009696      0.000006
   14 Atom     -0.937795     -0.010812      0.016579      0.000000
   15 Atom     -0.912227     -0.019803     -0.001193      0.000002
   16 Atom     -0.936555      0.009329      0.017195     -0.000002
   17 Atom     -0.942618     -0.008698     -0.017615      0.000001
   18 Atom     -0.955998      0.010428     -0.016797      0.000000
   19 Atom     -0.949557      0.009082      0.017338     -0.000002
   20 Atom     -0.938605      0.003753     -0.010142      0.015542
   21 Atom     -0.935752     -0.018548      0.003483      0.000002
   22 Atom     -0.938605      0.003749     -0.010143     -0.015543
   23 Atom     -0.989282      0.018140     -0.006470      0.000015
   24 Atom     -0.985192     -0.002768      0.009827      0.015359
   25 Atom     -0.985210     -0.002745      0.009829     -0.015360
 -----------------------------------------------------------------
 -----------------------------------------------------
    Center         ---- Electric Field Gradient ----
                     XX            YY            ZZ
 -----------------------------------------------------
    1 Atom     -500.687583   -500.736300   -501.163717
    2 Atom     -500.821437   -500.949453   -501.345232
    3 Atom     -812.661221   -812.620872   -812.158335
    4 Atom     -500.882657   -500.437140   -500.883271
    5 Atom     -500.671244   -500.737532   -501.153409
    6 Atom     -500.904042   -500.953458   -501.622981
    7 Atom     -500.652077   -500.740888   -501.093854
    8 Atom     -500.850088   -500.904265   -501.440405
    9 Atom     -501.037599   -500.550633   -501.167382
   10 Atom     -500.669829   -500.600580   -500.903726
   11 Atom     -500.354566   -500.634001   -500.174573
   12 Atom    -1238.149109  -1236.579232  -1235.285506
   13 Atom     -500.460661   -500.703374   -500.228318
   14 Atom       -1.805899     -1.985337     -1.642097
   15 Atom       -2.129126     -1.689175     -1.653182
   16 Atom       -1.779226     -2.020584     -1.656769
   17 Atom       -1.791712     -2.046730     -1.659001
   18 Atom       -1.788789     -1.992819     -1.645819
   19 Atom       -1.783836     -2.039555     -1.646534
   20 Atom       -1.700201     -1.800058     -1.969760
   21 Atom       -2.112586     -1.720919     -1.666772
   22 Atom       -1.700152     -1.800075     -1.969788
   23 Atom       -2.094349     -1.750985     -1.678036
   24 Atom       -1.711806     -1.827859     -1.988282
   25 Atom       -1.711518     -1.827847     -1.988508
 -----------------------------------------------------
 -----------------------------------------------------
    Center         ---- Electric Field Gradient ----
                     XY            XZ            YZ
 -----------------------------------------------------
    1 Atom       -0.039828     -0.000030     -0.000022
    2 Atom        0.190182     -0.000057     -0.000033
    3 Atom       -0.021671      0.000040      0.000032
    4 Atom       -0.015470     -0.000003     -0.000015
    5 Atom       -0.034049     -0.000034     -0.000017
    6 Atom        0.016921     -0.000041     -0.000039
    7 Atom        0.049082     -0.000038     -0.000006
    8 Atom       -0.035430     -0.000026      0.000021
    9 Atom        0.005264      0.000048      0.000005
   10 Atom       -0.002543     -0.000043      0.000023
   11 Atom       -0.312701      0.000033      0.000052
   12 Atom       -0.799405     -0.000487     -0.001230
   13 Atom       -0.395361     -0.000252     -0.000415
   14 Atom        0.210404     -0.000001      0.000006
   15 Atom       -0.036390      0.000042      0.000005
   16 Atom       -0.191601      0.000017      0.000030
   17 Atom       -0.192162      0.000008      0.000011
   18 Atom        0.203715      0.000011     -0.000016
   19 Atom       -0.189626      0.000028      0.000059
   20 Atom        0.045271     -0.089829      0.191430
   21 Atom        0.093497      0.000056     -0.000011
   22 Atom        0.045225      0.089755     -0.191450
   23 Atom        0.136853     -0.000393      0.000128
   24 Atom        0.031087      0.068236     -0.198284
   25 Atom        0.030714     -0.067699      0.198343
 -----------------------------------------------------
 -----------------------------------------------------
    Center         ---- Electric Field Gradient ----
                   ----       Eigenvalues       ----
 -----------------------------------------------------
    1 Atom     -501.163717   -500.758627   -500.665255
    2 Atom     -501.345232   -501.086110   -500.684780
    3 Atom     -812.670654   -812.611438   -812.158335
    4 Atom     -500.883271   -500.883193   -500.436604
    5 Atom     -501.153409   -500.751906   -500.656871
    6 Atom     -501.622981   -500.958696   -500.898804
    7 Atom     -501.093854   -500.762671   -500.630294
    8 Atom     -501.440405   -500.921776   -500.832578
    9 Atom     -501.167382   -501.037656   -500.550576
   10 Atom     -500.903726   -500.669922   -500.600487
   11 Atom     -500.836778   -500.174573   -500.151789
   12 Atom    -1238.484517  -1236.243825  -1235.285504
   13 Atom     -500.995585   -500.228317   -500.168450
   14 Atom       -2.124353     -1.666884     -1.642097
   15 Atom       -2.132115     -1.686185     -1.653182
   16 Atom       -2.126343     -1.673467     -1.656769
   17 Atom       -2.149839     -1.688603     -1.659001
   18 Atom       -2.118635     -1.662973     -1.645819
   19 Atom       -2.140400     -1.682990     -1.646534
   20 Atom       -2.118231     -1.686638     -1.665150
   21 Atom       -2.133760     -1.699745     -1.666772
   22 Atom       -2.118229     -1.686636     -1.665149
   23 Atom       -2.142220     -1.703114     -1.678035
   24 Atom       -2.134902     -1.708932     -1.684113
   25 Atom       -2.134874     -1.708902     -1.684098
 -----------------------------------------------------
 -----------------------------------------------------
    Center         ---- Electric Field Gradient ----
                       ( tensor representation )
                   3XX-RR        3YY-RR        3ZZ-RR
 -----------------------------------------------------
    1 Atom        0.174950      0.126234     -0.301184
    2 Atom        0.217270      0.089255     -0.306525
    3 Atom       -0.181078     -0.140730      0.321808
    4 Atom       -0.148301      0.297216     -0.148915
    5 Atom        0.182818      0.116529     -0.299347
    6 Atom        0.256118      0.206703     -0.462820
    7 Atom        0.176863      0.088051     -0.264914
    8 Atom        0.214831      0.160654     -0.375486
    9 Atom       -0.119061      0.367905     -0.248844
   10 Atom        0.054882      0.124132     -0.179014
   11 Atom        0.033147     -0.246287      0.213141
   12 Atom       -1.477827      0.092050      1.385777
   13 Atom        0.003457     -0.239256      0.235800
   14 Atom        0.005212     -0.174226      0.169014
   15 Atom       -0.305298      0.134653      0.170646
   16 Atom        0.039633     -0.201724      0.162091
   17 Atom        0.040769     -0.214249      0.173480
   18 Atom        0.020353     -0.183677      0.163324
   19 Atom        0.039472     -0.216247      0.176775
   20 Atom        0.123139      0.023281     -0.146420
   21 Atom       -0.279160      0.112506      0.166654
   22 Atom        0.123186      0.023263     -0.146449
   23 Atom       -0.253226      0.090138      0.163088
   24 Atom        0.130843      0.014790     -0.145633
   25 Atom        0.131106      0.014777     -0.145884
 -----------------------------------------------------
 -----------------------------------------------------
    Center         ---- Electric Field Gradient ----
                       ( tensor representation )
                   ----       Eigenvalues       ----
 -----------------------------------------------------
    1 Atom       -0.301184      0.103906      0.197278
    2 Atom       -0.306525     -0.047402      0.353927
    3 Atom       -0.190512     -0.131296      0.321808
    4 Atom       -0.148915     -0.148837      0.297752
    5 Atom       -0.299347      0.102156      0.197191
    6 Atom       -0.462820      0.201464      0.261357
    7 Atom       -0.264914      0.066269      0.198645
    8 Atom       -0.375486      0.143143      0.232342
    9 Atom       -0.248844     -0.119118      0.367962
   10 Atom       -0.179014      0.054789      0.124225
   11 Atom       -0.449065      0.213141      0.235925
   12 Atom       -1.813235      0.427457      1.385778
   13 Atom       -0.531467      0.235800      0.295667
   14 Atom       -0.313241      0.144227      0.169014
   15 Atom       -0.308288      0.137642      0.170646
   16 Atom       -0.307483      0.145393      0.162091
   17 Atom       -0.317358      0.143878      0.173480
   18 Atom       -0.309493      0.146169      0.163324
   19 Atom       -0.317092      0.140318      0.176775
   20 Atom       -0.294891      0.136702      0.158189
   21 Atom       -0.300335      0.133681      0.166654
   22 Atom       -0.294891      0.136702      0.158189
   23 Atom       -0.301097      0.138009      0.163088
   24 Atom       -0.292253      0.133717      0.158536
   25 Atom       -0.292250      0.133723      0.158527
 -----------------------------------------------------

 Test job not archived.
 1|1|UNPC-NP-ALMACH|FOpt|RB3LYP|6-311++G(d,p)|C11H12N1O1(1+)|HERA|06-Au
 g-2018|0||# RB3LYP/6-311++G** Opt Test prop=EFG||C11NH12O||1,1|C,-0.48
 46720393,-1.7034073384,2.9092163729|C,-0.1917653972,-0.4743402482,3.49
 32742865|N,0.0574646028,0.6152084798,2.7538465827|C,0.034958769,0.5680
 997983,1.3708238362|C,-0.2614195079,-0.6734992858,0.7282966067|C,-0.51
 95576644,-1.8035423954,1.535794919|C,0.2961417435,1.7101902847,0.58034
 44509|C,0.2622368681,1.6139967389,-0.7854807905|C,-0.0314345039,0.3846
 126959,-1.4411078685|C,-0.2895965119,-0.7436705596,-0.684667926|C,0.36
 18161836,1.8893572901,3.4437086261|O,-0.0273293174,0.4493523787,-2.776
 5967832|C,-0.3113889623,-0.7313793052,-3.5425392159|H,-0.6787390749,-2
 .5540930105,3.5481224217|H,-0.1529197782,-0.346539148,4.5660160886|H,-
 0.7458493162,-2.752257188,1.0625839368|H,0.5235574707,2.6641819399,1.0
 335397759|H,0.4601909597,2.4803096825,-1.4049706957|H,-0.5161632624,-1
 .6942473424,-1.1473199134|H,-0.3820960691,2.6395634394,3.1769058379|H,
 0.3307424074,1.7190927798,4.5162839437|H,1.357343438,2.231831795,3.162
 5750294|H,-0.2488993296,-0.4234319796,-4.5827522758|H,-1.3181342403,-1
 .09826128,-3.32606883|H,0.4310125322,-1.5084282219,-3.3424284161||Vers
 ion=EM64W-G09RevD.01|State=1-A|HF=-556.2923542|RMSD=4.059e-009|RMSF=1.
 337e-005|Dipole=-0.039307,-0.2263798,1.6966253|Quadrupole=-17.0563144,
 -0.4889006,17.545215,4.1625974,1.6264741,5.6574406|PG=C01 [X(C11H12N1O
 1)]||@


 SOME THINGS ARE EASY, THEY ARE ONLY HARD TO DO.
            -- A. EINSTEIN TO J. O. HIRSCHFELDER
 THE ONLY TROUBLE WITH A SURE THING IS THE UNCERTAINTY.
     -- FROM A TEABAG (BELONGING TO W.H.?)
 Job cpu time:       0 days  0 hours 14 minutes  6.0 seconds.
 File lengths (MBytes):  RWF=     62 Int=      0 D2E=      0 Chk=     12 Scr=      1
 Normal termination of Gaussian 09 at Mon Aug 06 17:57:22 2018.
