 Entering Link 1 = C:\G09W\l1.exe PID=     20300.
  
 Copyright (c) 1988,1990,1992,1993,1995,1998,2003,2009,2013,
            Gaussian, Inc.  All Rights Reserved.
  
 This is part of the Gaussian(R) 09 program.  It is based on
 the Gaussian(R) 03 system (copyright 2003, Gaussian, Inc.),
 the Gaussian(R) 98 system (copyright 1998, Gaussian, Inc.),
 the Gaussian(R) 94 system (copyright 1995, Gaussian, Inc.),
 the Gaussian 92(TM) system (copyright 1992, Gaussian, Inc.),
 the Gaussian 90(TM) system (copyright 1990, Gaussian, Inc.),
 the Gaussian 88(TM) system (copyright 1988, Gaussian, Inc.),
 the Gaussian 86(TM) system (copyright 1986, Carnegie Mellon
 University), and the Gaussian 82(TM) system (copyright 1983,
 Carnegie Mellon University). Gaussian is a federally registered
 trademark of Gaussian, Inc.
  
 This software contains proprietary and confidential information,
 including trade secrets, belonging to Gaussian, Inc.
  
 This software is provided under written license and may be
 used, copied, transmitted, or stored only in accord with that
 written license.
  
 The following legend is applicable only to US Government
 contracts under FAR:
  
                    RESTRICTED RIGHTS LEGEND
  
 Use, reproduction and disclosure by the US Government is
 subject to restrictions as set forth in subparagraphs (a)
 and (c) of the Commercial Computer Software - Restricted
 Rights clause in FAR 52.227-19.
  
 Gaussian, Inc.
 340 Quinnipiac St., Bldg. 40, Wallingford CT 06492
  
  
 ---------------------------------------------------------------
 Warning -- This program may not be used in any manner that
 competes with the business of Gaussian, Inc. or will provide
 assistance to any competitor of Gaussian, Inc.  The licensee
 of this program is prohibited from giving any competitor of
 Gaussian, Inc. access to this program.  By using this program,
 the user acknowledges that Gaussian, Inc. is engaged in the
 business of creating and licensing software in the field of
 computational chemistry and represents and warrants to the
 licensee that it is not a competitor of Gaussian, Inc. and that
 it will not use this program in any manner prohibited above.
 ---------------------------------------------------------------
  

 Cite this work as:
 Gaussian 09, Revision D.01,
 M. J. Frisch, G. W. Trucks, H. B. Schlegel, G. E. Scuseria, 
 M. A. Robb, J. R. Cheeseman, G. Scalmani, V. Barone, B. Mennucci, 
 G. A. Petersson, H. Nakatsuji, M. Caricato, X. Li, H. P. Hratchian, 
 A. F. Izmaylov, J. Bloino, G. Zheng, J. L. Sonnenberg, M. Hada, 
 M. Ehara, K. Toyota, R. Fukuda, J. Hasegawa, M. Ishida, T. Nakajima, 
 Y. Honda, O. Kitao, H. Nakai, T. Vreven, J. A. Montgomery, Jr., 
 J. E. Peralta, F. Ogliaro, M. Bearpark, J. J. Heyd, E. Brothers, 
 K. N. Kudin, V. N. Staroverov, T. Keith, R. Kobayashi, J. Normand, 
 K. Raghavachari, A. Rendell, J. C. Burant, S. S. Iyengar, J. Tomasi, 
 M. Cossi, N. Rega, J. M. Millam, M. Klene, J. E. Knox, J. B. Cross, 
 V. Bakken, C. Adamo, J. Jaramillo, R. Gomperts, R. E. Stratmann, 
 O. Yazyev, A. J. Austin, R. Cammi, C. Pomelli, J. W. Ochterski, 
 R. L. Martin, K. Morokuma, V. G. Zakrzewski, G. A. Voth, 
 P. Salvador, J. J. Dannenberg, S. Dapprich, A. D. Daniels, 
 O. Farkas, J. B. Foresman, J. V. Ortiz, J. Cioslowski, 
 and D. J. Fox, Gaussian, Inc., Wallingford CT, 2013.
 
 ******************************************
 Gaussian 09:  EM64W-G09RevD.01 13-Apr-2013
                03-Aug-2018 
 ******************************************
 %Chk=Anth_308.chk
 %Mem=64GB
 %NProcShared=20
 Will use up to   20 processors via shared memory.
 -------------------------------------
 # RB3LYP/6-311++G** Opt Test prop=EFG
 -------------------------------------
 1/14=-1,18=20,19=15,26=3,38=1/1,3;
 2/9=110,12=2,17=6,18=5,40=1/2;
 3/5=4,6=6,7=1111,11=2,16=1,25=1,30=1,71=1,74=-5,116=1/1,2,3;
 4//1;
 5/5=2,38=5/2;
 6/7=2,8=2,9=2,10=2,14=1,28=1/1,2;
 7//1,2,3,16;
 1/14=-1,18=20,19=15,26=3/3(2);
 2/9=110/2;
 99//99;
 2/9=110/2;
 3/5=4,6=6,7=1111,11=2,16=1,25=1,30=1,71=1,74=-5,116=1/1,2,3;
 4/5=5,16=3,69=1/1;
 5/5=2,38=5/2;
 7//1,2,3,16;
 1/14=-1,18=20,19=15,26=3/3(-5);
 2/9=110/2;
 6/7=2,8=2,9=2,10=2,14=1,19=2,28=1/1,2;
 99/9=1/99;
 ----
 C6F6
 ----
 Symbolic Z-matrix:
 Charge =  0 Multiplicity = 1
 C                     0.81959   1.0339   -0.27421 
 C                     1.33614  -0.16855   0.04701 
 C                     0.51655  -1.20245   0.32121 
 C                    -0.81959  -1.03388   0.27425 
 C                    -1.33614   0.16858  -0.0469 
 C                    -0.51655   1.20247  -0.32116 
 F                    -1.02546   2.3872   -0.63763 
 F                    -2.65259   0.33465  -0.09312 
 F                    -1.62711  -2.05256   0.54443 
 F                     1.02546  -2.3872    0.63763 
 F                     2.65259  -0.33461   0.09332 
 F                     1.62712   2.05256  -0.54443 
 

 GradGradGradGradGradGradGradGradGradGradGradGradGradGradGradGradGradGrad
 Berny optimization.
 Initialization pass.
                           ----------------------------
                           !    Initial Parameters    !
                           ! (Angstroms and Degrees)  !
 --------------------------                            --------------------------
 ! Name  Definition              Value          Derivative Info.                !
 --------------------------------------------------------------------------------
 ! R1    R(1,2)                  1.3476         estimate D2E/DX2                !
 ! R2    R(1,6)                  1.3475         estimate D2E/DX2                !
 ! R3    R(1,12)                 1.3277         estimate D2E/DX2                !
 ! R4    R(2,3)                  1.3475         estimate D2E/DX2                !
 ! R5    R(2,11)                 1.3277         estimate D2E/DX2                !
 ! R6    R(3,4)                  1.3475         estimate D2E/DX2                !
 ! R7    R(3,10)                 1.3277         estimate D2E/DX2                !
 ! R8    R(4,5)                  1.3475         estimate D2E/DX2                !
 ! R9    R(4,9)                  1.3277         estimate D2E/DX2                !
 ! R10   R(5,6)                  1.3475         estimate D2E/DX2                !
 ! R11   R(5,8)                  1.3277         estimate D2E/DX2                !
 ! R12   R(6,7)                  1.3277         estimate D2E/DX2                !
 ! A1    A(2,1,6)              120.0007         estimate D2E/DX2                !
 ! A2    A(2,1,12)             119.9995         estimate D2E/DX2                !
 ! A3    A(6,1,12)             119.9997         estimate D2E/DX2                !
 ! A4    A(1,2,3)              119.9996         estimate D2E/DX2                !
 ! A5    A(1,2,11)             120.0            estimate D2E/DX2                !
 ! A6    A(3,2,11)             120.0004         estimate D2E/DX2                !
 ! A7    A(2,3,4)              119.9996         estimate D2E/DX2                !
 ! A8    A(2,3,10)             120.0006         estimate D2E/DX2                !
 ! A9    A(4,3,10)             119.9997         estimate D2E/DX2                !
 ! A10   A(3,4,5)              120.0007         estimate D2E/DX2                !
 ! A11   A(3,4,9)              119.9996         estimate D2E/DX2                !
 ! A12   A(5,4,9)              119.9997         estimate D2E/DX2                !
 ! A13   A(4,5,6)              119.9997         estimate D2E/DX2                !
 ! A14   A(4,5,8)              119.9996         estimate D2E/DX2                !
 ! A15   A(6,5,8)              120.0008         estimate D2E/DX2                !
 ! A16   A(1,6,5)              119.9996         estimate D2E/DX2                !
 ! A17   A(1,6,7)              119.9999         estimate D2E/DX2                !
 ! A18   A(5,6,7)              120.0005         estimate D2E/DX2                !
 ! D1    D(6,1,2,3)              0.0038         estimate D2E/DX2                !
 ! D2    D(6,1,2,11)          -179.9975         estimate D2E/DX2                !
 ! D3    D(12,1,2,3)          -179.9968         estimate D2E/DX2                !
 ! D4    D(12,1,2,11)            0.0019         estimate D2E/DX2                !
 ! D5    D(2,1,6,5)             -0.0003         estimate D2E/DX2                !
 ! D6    D(2,1,6,7)            179.999          estimate D2E/DX2                !
 ! D7    D(12,1,6,5)          -179.9997         estimate D2E/DX2                !
 ! D8    D(12,1,6,7)            -0.0004         estimate D2E/DX2                !
 ! D9    D(1,2,3,4)             -0.0038         estimate D2E/DX2                !
 ! D10   D(1,2,3,10)           179.9969         estimate D2E/DX2                !
 ! D11   D(11,2,3,4)           179.9975         estimate D2E/DX2                !
 ! D12   D(11,2,3,10)           -0.0019         estimate D2E/DX2                !
 ! D13   D(2,3,4,5)              0.0003         estimate D2E/DX2                !
 ! D14   D(2,3,4,9)           -179.999          estimate D2E/DX2                !
 ! D15   D(10,3,4,5)           179.9997         estimate D2E/DX2                !
 ! D16   D(10,3,4,9)             0.0003         estimate D2E/DX2                !
 ! D17   D(3,4,5,6)              0.0032         estimate D2E/DX2                !
 ! D18   D(3,4,5,8)           -179.9981         estimate D2E/DX2                !
 ! D19   D(9,4,5,6)           -179.9975         estimate D2E/DX2                !
 ! D20   D(9,4,5,8)              0.0012         estimate D2E/DX2                !
 ! D21   D(4,5,6,1)             -0.0032         estimate D2E/DX2                !
 ! D22   D(4,5,6,7)            179.9975         estimate D2E/DX2                !
 ! D23   D(8,5,6,1)            179.9981         estimate D2E/DX2                !
 ! D24   D(8,5,6,7)             -0.0012         estimate D2E/DX2                !
 --------------------------------------------------------------------------------
 Trust Radius=3.00D-01 FncErr=1.00D-07 GrdErr=1.00D-06
 Number of steps in this run=     64 maximum allowed number of steps=    100.
 GradGradGradGradGradGradGradGradGradGradGradGradGradGradGradGradGradGrad

                          Input orientation:                          
 ---------------------------------------------------------------------
 Center     Atomic      Atomic             Coordinates (Angstroms)
 Number     Number       Type             X           Y           Z
 ---------------------------------------------------------------------
      1          6           0        0.819590    1.033900   -0.274209
      2          6           0        1.336143   -0.168550    0.047012
      3          6           0        0.516550   -1.202454    0.321205
      4          6           0       -0.819590   -1.033884    0.274250
      5          6           0       -1.336141    0.168581   -0.046902
      6          6           0       -0.516547    1.202469   -0.321164
      7          9           0       -1.025464    2.387198   -0.637631
      8          9           0       -2.652593    0.334651   -0.093122
      9          9           0       -1.627114   -2.052561    0.544425
     10          9           0        1.025464   -2.387198    0.637631
     11          9           0        2.652593   -0.334605    0.093319
     12          9           0        1.627115    2.052561   -0.544426
 ---------------------------------------------------------------------
                    Distance matrix (angstroms):
                    1          2          3          4          5
     1  C    0.000000
     2  C    1.347552   0.000000
     3  C    2.334016   1.347543   0.000000
     4  C    2.695079   2.334015   1.347550   0.000000
     5  C    2.334014   2.695103   2.334032   1.347548   0.000000
     6  C    1.347547   2.334032   2.695103   2.334015   1.347545
     7  F    2.316833   3.546515   4.022782   3.546507   2.316839
     8  F    3.546519   4.022793   3.546523   2.316841   1.327690
     9  F    4.022781   3.546521   2.316852   1.327702   2.316852
    10  F    3.546512   2.316841   1.327681   2.316836   3.546515
    11  F    2.316848   1.327689   2.316846   3.546517   4.022792
    12  F    1.327699   2.316851   3.546519   4.022777   3.546519
                    6          7          8          9         10
     6  C    0.000000
     7  F    1.327679   0.000000
     8  F    2.316852   2.675255   0.000000
     9  F    3.546523   4.633649   2.675230   0.000000
    10  F    4.022784   5.350463   4.633634   2.675227   0.000000
    11  F    3.546525   4.633638   5.350482   4.633655   2.675250
    12  F    2.316849   2.675228   4.633658   5.350479   4.633649
                   11         12
    11  F    0.000000
    12  F    2.675236   0.000000
 Stoichiometry    C6F6
 Framework group  C1[X(C6F6)]
 Deg. of freedom    30
 Full point group                 C1      NOp   1
 Largest Abelian subgroup         C1      NOp   1
 Largest concise Abelian subgroup C1      NOp   1
                         Standard orientation:                         
 ---------------------------------------------------------------------
 Center     Atomic      Atomic             Coordinates (Angstroms)
 Number     Number       Type             X           Y           Z
 ---------------------------------------------------------------------
      1          6           0        1.297646   -0.363293    0.000012
      2          6           0        0.963447    0.942160   -0.000025
      3          6           0       -0.334201    1.305451    0.000013
      4          6           0       -1.297644    0.363289    0.000011
      5          6           0       -0.963446   -0.942160   -0.000022
      6          6           0        0.334205   -1.305452    0.000011
      7          9           0        0.663494   -2.591648    0.000028
      8          9           0       -1.912708   -1.870418   -0.000062
      9          9           0       -2.576185    0.721232    0.000028
     10          9           0       -0.663495    2.591648    0.000039
     11          9           0        1.912703    1.870423   -0.000073
     12          9           0        2.576185   -0.721232    0.000040
 ---------------------------------------------------------------------
 Rotational constants (GHZ):      1.0678246      1.0678176      0.5339105
 Standard basis: 6-311++G(d,p) (5D, 7F)
 There are   276 symmetry adapted cartesian basis functions of A   symmetry.
 There are   264 symmetry adapted basis functions of A   symmetry.
   264 basis functions,   432 primitive gaussians,   276 cartesian basis functions
    45 alpha electrons       45 beta electrons
       nuclear repulsion energy       747.1214945734 Hartrees.
 NAtoms=   12 NActive=   12 NUniq=   12 SFac= 1.00D+00 NAtFMM=   60 NAOKFM=F Big=F
 Integral buffers will be    131072 words long.
 Raffenetti 2 integral format.
 Two-electron integral symmetry is turned on.
 One-electron integrals computed using PRISM.
 NBasis=   264 RedAO= T EigKep=  1.03D-06  NBF=   264
 NBsUse=   264 1.00D-06 EigRej= -1.00D+00 NBFU=   264
 ExpMin= 4.38D-02 ExpMax= 1.14D+04 ExpMxC= 1.72D+03 IAcc=2 IRadAn=         4 AccDes= 0.00D+00
 Harris functional with IExCor=  402 and IRadAn=       4 diagonalized for initial guess.
 HarFok:  IExCor=  402 AccDes= 0.00D+00 IRadAn=         4 IDoV= 1 UseB2=F ITyADJ=14
 ICtDFT=  3500011 ScaDFX=  1.000000  1.000000  1.000000  1.000000
 FoFCou: FMM=F IPFlag=           0 FMFlag=      100000 FMFlg1=           0
         NFxFlg=           0 DoJE=T BraDBF=F KetDBF=T FulRan=T
         wScrn=  0.000000 ICntrl=     500 IOpCl=  0 I1Cent=   200000004 NGrid=           0
         NMat0=    1 NMatS0=      1 NMatT0=    0 NMatD0=    1 NMtDS0=    0 NMtDT0=    0
 Petite list used in FoFCou.
 Keep R1 ints in memory in canonical form, NReq=622699132.
 Requested convergence on RMS density matrix=1.00D-08 within 128 cycles.
 Requested convergence on MAX density matrix=1.00D-06.
 Requested convergence on             energy=1.00D-06.
 No special actions if energy rises.
 SCF Done:  E(RB3LYP) =  -827.857636353     A.U. after   11 cycles
            NFock= 11  Conv=0.33D-08     -V/T= 2.0019

 **********************************************************************

            Population analysis using the SCF density.

 **********************************************************************

 Orbital symmetries:
       Occupied  (A) (A) (A) (A) (A) (A) (A) (A) (A) (A) (A) (A)
                 (A) (A) (A) (A) (A) (A) (A) (A) (A) (A) (A) (A)
                 (A) (A) (A) (A) (A) (A) (A) (A) (A) (A) (A) (A)
                 (A) (A) (A) (A) (A) (A) (A) (A) (A)
       Virtual   (A) (A) (A) (A) (A) (A) (A) (A) (A) (A) (A) (A)
                 (A) (A) (A) (A) (A) (A) (A) (A) (A) (A) (A) (A)
                 (A) (A) (A) (A) (A) (A) (A) (A) (A) (A) (A) (A)
                 (A) (A) (A) (A) (A) (A) (A) (A) (A) (A) (A) (A)
                 (A) (A) (A) (A) (A) (A) (A) (A) (A) (A) (A) (A)
                 (A) (A) (A) (A) (A) (A) (A) (A) (A) (A) (A) (A)
                 (A) (A) (A) (A) (A) (A) (A) (A) (A) (A) (A) (A)
                 (A) (A) (A) (A) (A) (A) (A) (A) (A) (A) (A) (A)
                 (A) (A) (A) (A) (A) (A) (A) (A) (A) (A) (A) (A)
                 (A) (A) (A) (A) (A) (A) (A) (A) (A) (A) (A) (A)
                 (A) (A) (A) (A) (A) (A) (A) (A) (A) (A) (A) (A)
                 (A) (A) (A) (A) (A) (A) (A) (A) (A) (A) (A) (A)
                 (A) (A) (A) (A) (A) (A) (A) (A) (A) (A) (A) (A)
                 (A) (A) (A) (A) (A) (A) (A) (A) (A) (A) (A) (A)
                 (A) (A) (A) (A) (A) (A) (A) (A) (A) (A) (A) (A)
                 (A) (A) (A) (A) (A) (A) (A) (A) (A) (A) (A) (A)
                 (A) (A) (A) (A) (A) (A) (A) (A) (A) (A) (A) (A)
                 (A) (A) (A) (A) (A) (A) (A) (A) (A) (A) (A) (A)
                 (A) (A) (A)
 The electronic state is 1-A.
 Alpha  occ. eigenvalues --  -24.74223 -24.74222 -24.74221 -24.74221 -24.74221
 Alpha  occ. eigenvalues --  -24.74220 -10.31200 -10.31166 -10.31166 -10.31089
 Alpha  occ. eigenvalues --  -10.31089 -10.31051  -1.30386  -1.29593  -1.29592
 Alpha  occ. eigenvalues --   -1.28097  -1.28096  -1.27351  -0.96407  -0.83052
 Alpha  occ. eigenvalues --   -0.83052  -0.71354  -0.71354  -0.65186  -0.64161
 Alpha  occ. eigenvalues --   -0.61647  -0.58746  -0.58746  -0.57256  -0.56934
 Alpha  occ. eigenvalues --   -0.56933  -0.53419  -0.53418  -0.50232  -0.50232
 Alpha  occ. eigenvalues --   -0.49274  -0.47701  -0.47701  -0.46430  -0.44585
 Alpha  occ. eigenvalues --   -0.44585  -0.42105  -0.39453  -0.29848  -0.29848
 Alpha virt. eigenvalues --   -0.06676  -0.04371  -0.04371   0.00772   0.00775
 Alpha virt. eigenvalues --    0.03470   0.03605   0.05488   0.05490   0.07024
 Alpha virt. eigenvalues --    0.07812   0.07817   0.08480   0.10073   0.10081
 Alpha virt. eigenvalues --    0.11493   0.12127   0.12131   0.13653   0.13670
 Alpha virt. eigenvalues --    0.14348   0.15275   0.15276   0.16380   0.17476
 Alpha virt. eigenvalues --    0.17493   0.19277   0.19838   0.19842   0.22530
 Alpha virt. eigenvalues --    0.25139   0.25898   0.25902   0.26189   0.28156
 Alpha virt. eigenvalues --    0.30500   0.30502   0.30833   0.30835   0.30855
 Alpha virt. eigenvalues --    0.31504   0.31524   0.35666   0.36052   0.36683
 Alpha virt. eigenvalues --    0.36700   0.37104   0.37110   0.37329   0.37330
 Alpha virt. eigenvalues --    0.39685   0.39688   0.41352   0.41373   0.41922
 Alpha virt. eigenvalues --    0.44971   0.49431   0.49436   0.49543   0.49548
 Alpha virt. eigenvalues --    0.52303   0.52304   0.52318   0.52997   0.53589
 Alpha virt. eigenvalues --    0.57013   0.59643   0.59646   0.65080   0.69606
 Alpha virt. eigenvalues --    0.71499   0.71503   0.72367   0.72370   0.76830
 Alpha virt. eigenvalues --    0.80832   0.85513   0.85514   0.91246   0.91269
 Alpha virt. eigenvalues --    0.91272   0.93964   0.93967   0.98267   0.98864
 Alpha virt. eigenvalues --    1.03888   1.03889   1.11897   1.11899   1.16270
 Alpha virt. eigenvalues --    1.16270   1.18736   1.23369   1.25547   1.32853
 Alpha virt. eigenvalues --    1.36961   1.37812   1.38126   1.38130   1.39444
 Alpha virt. eigenvalues --    1.39447   1.41211   1.41214   1.42131   1.42135
 Alpha virt. eigenvalues --    1.43392   1.47528   1.50322   1.51254   1.51257
 Alpha virt. eigenvalues --    1.51703   1.51714   1.53754   1.61711   1.64242
 Alpha virt. eigenvalues --    1.64246   1.72616   1.72616   1.77620   1.77621
 Alpha virt. eigenvalues --    1.80610   1.80614   1.84697   1.84698   1.87588
 Alpha virt. eigenvalues --    1.93914   1.97717   1.97720   2.05726   2.05730
 Alpha virt. eigenvalues --    2.14738   2.14745   2.19703   2.19707   2.23954
 Alpha virt. eigenvalues --    2.28009   2.36578   2.39201   2.47816   2.47819
 Alpha virt. eigenvalues --    2.52360   2.64288   2.64289   2.78688   2.78689
 Alpha virt. eigenvalues --    3.03028   3.06541   3.09700   3.09703   3.11716
 Alpha virt. eigenvalues --    3.13521   3.22338   3.22338   3.41359   3.41360
 Alpha virt. eigenvalues --    3.72191   3.72191   3.72490   3.73857   3.73857
 Alpha virt. eigenvalues --    3.74009   3.74235   3.74815   3.74815   3.76576
 Alpha virt. eigenvalues --    3.81269   3.81269   3.85122   3.88786   3.89563
 Alpha virt. eigenvalues --    3.93504   3.93505   3.97376   3.97378   3.98624
 Alpha virt. eigenvalues --    3.98625   4.04097   4.06730   4.06732   4.17788
 Alpha virt. eigenvalues --    4.17789   4.24303   4.61923   4.79017   4.79018
 Alpha virt. eigenvalues --    4.92347   4.92349   4.94912   5.01440   6.22525
 Alpha virt. eigenvalues --    6.26409   6.26409   6.29467   6.29687   6.29688
 Alpha virt. eigenvalues --    6.34976   6.37971   6.37975   6.44360   6.44366
 Alpha virt. eigenvalues --    6.47865   6.55512   6.72496   6.72497   6.81199
 Alpha virt. eigenvalues --    6.81201   6.91275  23.27288  23.87600  23.87601
 Alpha virt. eigenvalues --   24.11401  24.11403  24.25606  66.69930  66.74569
 Alpha virt. eigenvalues --   66.74569  66.78289  66.78290  66.86520
          Condensed to atoms (all electrons):
               1          2          3          4          5          6
     1  C   18.129333   0.675502  -4.314960  -5.086120  -4.312243   0.670538
     2  C    0.675502  18.108611   0.676894  -4.312265  -5.074783  -4.311588
     3  C   -4.314960   0.676894  18.124737   0.670696  -4.311658  -5.083511
     4  C   -5.086120  -4.312265   0.670696  18.129403   0.675352  -4.315008
     5  C   -4.312243  -5.074783  -4.311658   0.675352  18.108679   0.677019
     6  C    0.670538  -4.311588  -5.083511  -4.315008   0.677019  18.124753
     7  F   -0.194395  -0.098537   0.036758  -0.098615  -0.194370   0.582939
     8  F   -0.098644   0.036702  -0.098617  -0.194728   0.584078  -0.194722
     9  F    0.036771  -0.098501  -0.194295   0.582716  -0.194375  -0.098573
    10  F   -0.098614  -0.194378   0.582951  -0.194399  -0.098536   0.036757
    11  F   -0.194723   0.584075  -0.194724  -0.098643   0.036702  -0.098620
    12  F    0.582702  -0.194366  -0.098573   0.036771  -0.098503  -0.194291
               7          8          9         10         11         12
     1  C   -0.194395  -0.098644   0.036771  -0.098614  -0.194723   0.582702
     2  C   -0.098537   0.036702  -0.098501  -0.194378   0.584075  -0.194366
     3  C    0.036758  -0.098617  -0.194295   0.582951  -0.194724  -0.098573
     4  C   -0.098615  -0.194728   0.582716  -0.194399  -0.098643   0.036771
     5  C   -0.194370   0.584078  -0.194375  -0.098536   0.036702  -0.098503
     6  C    0.582939  -0.194722  -0.098573   0.036757  -0.098620  -0.194291
     7  F    9.168043   0.000627   0.000478  -0.000101   0.000479   0.000629
     8  F    0.000627   9.167684   0.000633   0.000479  -0.000102   0.000479
     9  F    0.000478   0.000633   9.168132   0.000629   0.000479  -0.000101
    10  F   -0.000101   0.000479   0.000629   9.168040   0.000627   0.000478
    11  F    0.000479  -0.000102   0.000479   0.000627   9.167684   0.000633
    12  F    0.000629   0.000479  -0.000101   0.000478   0.000633   9.168135
 Mulliken charges:
               1
     1  C    0.204854
     2  C    0.202636
     3  C    0.204303
     4  C    0.204842
     5  C    0.202640
     6  C    0.204306
     7  F   -0.203933
     8  F   -0.203866
     9  F   -0.203992
    10  F   -0.203933
    11  F   -0.203866
    12  F   -0.203991
 Sum of Mulliken charges =   0.00000
 Mulliken charges with hydrogens summed into heavy atoms:
               1
     1  C    0.204854
     2  C    0.202636
     3  C    0.204303
     4  C    0.204842
     5  C    0.202640
     6  C    0.204306
     7  F   -0.203933
     8  F   -0.203866
     9  F   -0.203992
    10  F   -0.203933
    11  F   -0.203866
    12  F   -0.203991
 Electronic spatial extent (au):  <R**2>=           1762.5100
 Charge=              0.0000 electrons
 Dipole moment (field-independent basis, Debye):
    X=              0.0000    Y=              0.0000    Z=              0.0000  Tot=              0.0000
 Quadrupole moment (field-independent basis, Debye-Ang):
   XX=            -70.1535   YY=            -70.1525   ZZ=            -60.0302
   XY=              0.0001   XZ=              0.0000   YZ=              0.0000
 Traceless Quadrupole moment (field-independent basis, Debye-Ang):
   XX=             -3.3748   YY=             -3.3738   ZZ=              6.7486
   XY=              0.0001   XZ=              0.0000   YZ=              0.0000
 Octapole moment (field-independent basis, Debye-Ang**2):
  XXX=              0.0002  YYY=             -0.0001  ZZZ=              0.0000  XYY=              0.0000
  XXY=              0.0000  XXZ=              0.0000  XZZ=              0.0000  YZZ=              0.0000
  YYZ=              0.0000  XYZ=              0.0005
 Hexadecapole moment (field-independent basis, Debye-Ang**3):
 XXXX=           -925.4181 YYYY=           -925.4033 ZZZZ=            -51.5750 XXXY=              0.0033
 XXXZ=             -0.0001 YYYX=              0.0018 YYYZ=             -0.0001 ZZZX=              0.0000
 ZZZY=              0.0000 XXYY=           -308.4685 XXZZ=           -148.7058 YYZZ=           -148.7043
 XXYZ=              0.0001 YYXZ=              0.0001 ZZXY=             -0.0004
 N-N= 7.471214945734D+02 E-N=-3.454426558159D+03  KE= 8.262964747482D+02

 **********************************************************************

            Electrostatic Properties Using The SCF Density

 **********************************************************************

       Atomic Center    1 is at   1.297646 -0.363293  0.000012
       Atomic Center    2 is at   0.963447  0.942160 -0.000025
       Atomic Center    3 is at  -0.334201  1.305451  0.000013
       Atomic Center    4 is at  -1.297644  0.363289  0.000011
       Atomic Center    5 is at  -0.963446 -0.942160 -0.000022
       Atomic Center    6 is at   0.334205 -1.305452  0.000011
       Atomic Center    7 is at   0.663494 -2.591648  0.000028
       Atomic Center    8 is at  -1.912708 -1.870418 -0.000062
       Atomic Center    9 is at  -2.576185  0.721232  0.000028
       Atomic Center   10 is at  -0.663495  2.591648  0.000039
       Atomic Center   11 is at   1.912703  1.870423 -0.000073
       Atomic Center   12 is at   2.576185 -0.721232  0.000040
 -----------------------------------------------------------------

              Electrostatic Properties (Atomic Units)

 -----------------------------------------------------------------
    Center     Electric         -------- Electric Field --------
               Potential          X             Y             Z
 -----------------------------------------------------------------
    1 Atom    -14.639406     -0.006549      0.001835      0.000000
    2 Atom    -14.639403     -0.004870     -0.004764      0.000000
    3 Atom    -14.639407      0.001688     -0.006592      0.000000
    4 Atom    -14.639407      0.006549     -0.001834      0.000000
    5 Atom    -14.639404      0.004870      0.004764      0.000000
    6 Atom    -14.639406     -0.001689      0.006592      0.000000
    7 Atom    -26.540089      0.012363     -0.048316      0.000001
    8 Atom    -26.540091     -0.035649     -0.034862     -0.000002
    9 Atom    -26.540095     -0.048027      0.013441      0.000001
   10 Atom    -26.540090     -0.012363      0.048315      0.000001
   11 Atom    -26.540090      0.035649      0.034862     -0.000002
   12 Atom    -26.540094      0.048027     -0.013441      0.000001
 -----------------------------------------------------------------
 -----------------------------------------------------
    Center         ---- Electric Field Gradient ----
                     XX            YY            ZZ
 -----------------------------------------------------
    1 Atom     -501.139559   -500.447205   -500.675949
    2 Atom     -500.802164   -500.784057   -500.675691
    3 Atom     -500.438158   -501.148591   -500.675966
    4 Atom     -501.139567   -500.447206   -500.675953
    5 Atom     -500.802171   -500.784057   -500.675694
    6 Atom     -500.438157   -501.148586   -500.675962
    7 Atom    -1785.120616  -1789.351666  -1785.213602
    8 Atom    -1787.290015  -1787.182109  -1785.213474
    9 Atom    -1789.298072  -1785.174710  -1785.213764
   10 Atom    -1785.120640  -1789.351682  -1785.213616
   11 Atom    -1787.289966  -1787.182146  -1785.213470
   12 Atom    -1789.298048  -1785.174683  -1785.213747
 -----------------------------------------------------
 -----------------------------------------------------
    Center         ---- Electric Field Gradient ----
                     XY            XZ            YZ
 -----------------------------------------------------
    1 Atom        0.210331     -0.000009      0.000002
    2 Atom       -0.404957      0.000012      0.000011
    3 Atom        0.194650      0.000002     -0.000008
    4 Atom        0.210330      0.000007     -0.000002
    5 Atom       -0.404958     -0.000011     -0.000010
    6 Atom        0.194651     -0.000001      0.000007
    7 Atom        1.159063     -0.000016      0.000064
    8 Atom       -2.411630     -0.000110     -0.000107
    9 Atom        1.252442      0.000064     -0.000018
   10 Atom        1.159083      0.000026     -0.000102
   11 Atom       -2.411629      0.000138      0.000135
   12 Atom        1.252423     -0.000106      0.000029
 -----------------------------------------------------
 -----------------------------------------------------
    Center         ---- Electric Field Gradient ----
                   ----       Eigenvalues       ----
 -----------------------------------------------------
    1 Atom     -501.198446   -500.675949   -500.388317
    2 Atom     -501.198169   -500.675691   -500.388052
    3 Atom     -501.198427   -500.675966   -500.388322
    4 Atom     -501.198453   -500.675953   -500.388319
    5 Atom     -501.198174   -500.675694   -500.388055
    6 Atom     -501.198422   -500.675962   -500.388321
    7 Atom    -1789.648376  -1785.213602  -1784.823907
    8 Atom    -1789.648296  -1785.213474  -1784.823828
    9 Atom    -1789.648680  -1785.213764  -1784.824102
   10 Atom    -1789.648402  -1785.213616  -1784.823921
   11 Atom    -1789.648287  -1785.213470  -1784.823824
   12 Atom    -1789.648646  -1785.213747  -1784.824084
 -----------------------------------------------------
 -----------------------------------------------------
    Center         ---- Electric Field Gradient ----
                       ( tensor representation )
                   3XX-RR        3YY-RR        3ZZ-RR
 -----------------------------------------------------
    1 Atom       -0.385321      0.307032      0.078288
    2 Atom       -0.048193     -0.030086      0.078280
    3 Atom        0.316080     -0.394353      0.078273
    4 Atom       -0.385325      0.307036      0.078288
    5 Atom       -0.048197     -0.030083      0.078280
    6 Atom        0.316078     -0.394351      0.078273
    7 Atom        1.441345     -2.789705      1.348360
    8 Atom       -0.728149     -0.620243      1.348392
    9 Atom       -2.735890      1.387472      1.348418
   10 Atom        1.441339     -2.789703      1.348364
   11 Atom       -0.728105     -0.620285      1.348390
   12 Atom       -2.735889      1.387477      1.348412
 -----------------------------------------------------
 -----------------------------------------------------
    Center         ---- Electric Field Gradient ----
                       ( tensor representation )
                   ----       Eigenvalues       ----
 -----------------------------------------------------
    1 Atom       -0.444209      0.078288      0.365920
    2 Atom       -0.444198      0.078280      0.365919
    3 Atom       -0.444189      0.078273      0.365916
    4 Atom       -0.444211      0.078288      0.365923
    5 Atom       -0.444199      0.078280      0.365919
    6 Atom       -0.444187      0.078273      0.365914
    7 Atom       -3.086414      1.348360      1.738055
    8 Atom       -3.086430      1.348392      1.738037
    9 Atom       -3.086498      1.348418      1.738080
   10 Atom       -3.086422      1.348364      1.738058
   11 Atom       -3.086427      1.348390      1.738036
   12 Atom       -3.086487      1.348412      1.738075
 -----------------------------------------------------
 Calling FoFJK, ICntrl=      2127 FMM=F ISym2X=0 I1Cent= 0 IOpClX= 0 NMat=1 NMatS=1 NMatT=0.
 ***** Axes restored to original set *****
 -------------------------------------------------------------------
 Center     Atomic                   Forces (Hartrees/Bohr)
 Number     Number              X              Y              Z
 -------------------------------------------------------------------
      1        6           0.022877907    0.028878459   -0.007659419
      2        6           0.037365150   -0.004711606    0.001311697
      3        6           0.014405376   -0.033572907    0.008967947
      4        6          -0.022874819   -0.028883159    0.007661475
      5        6          -0.037366392    0.004712945   -0.001313805
      6        6          -0.014408820    0.033570590   -0.008966354
      7        9          -0.003589435    0.008306942   -0.002218679
      8        9          -0.009201380    0.001174423   -0.000327671
      9        9          -0.005680756   -0.007126740    0.001890457
     10        9           0.003588833   -0.008304599    0.002218936
     11        9           0.009202114   -0.001173648    0.000325594
     12        9           0.005682219    0.007129300   -0.001890178
 -------------------------------------------------------------------
 Cartesian Forces:  Max     0.037366392 RMS     0.015830503

 GradGradGradGradGradGradGradGradGradGradGradGradGradGradGradGradGradGrad
 Berny optimization.
 FormGI is forming the generalized inverse of G from B-inverse, IUseBI=4.
 Internal  Forces:  Max     0.046960104 RMS     0.015953174
 Search for a local minimum.
 Step number   1 out of a maximum of   64
 All quantities printed in internal units (Hartrees-Bohrs-Radians)
 Mixed Optimization -- RFO/linear search
 Second derivative matrix not updated -- first step.
 ITU=  0
     Eigenvalues ---    0.02783   0.02783   0.02783   0.02783   0.02783
     Eigenvalues ---    0.02783   0.02783   0.02783   0.02783   0.25000
     Eigenvalues ---    0.25000   0.25000   0.25000   0.25000   0.25000
     Eigenvalues ---    0.25000   0.25000   0.25000   0.49808   0.49808
     Eigenvalues ---    0.55546   0.55546   0.55547   0.55547   0.60052
     Eigenvalues ---    0.60052   0.60055   0.60055   0.60057   0.60057
 RFO step:  Lambda=-2.36660088D-02 EMin= 2.78257069D-02
 Linear search not attempted -- first point.
 Iteration  1 RMS(Cart)=  0.04187427 RMS(Int)=  0.00000050
 Iteration  2 RMS(Cart)=  0.00000062 RMS(Int)=  0.00000000
 Variable       Old X    -DE/DX   Delta X   Delta X   Delta X     New X
                                 (Linear)    (Quad)   (Total)
    R1        2.54650   0.04694   0.00000   0.08106   0.08106   2.62756
    R2        2.54649   0.04696   0.00000   0.08109   0.08109   2.62758
    R3        2.50899   0.00931   0.00000   0.01492   0.01492   2.52390
    R4        2.54649   0.04694   0.00000   0.08105   0.08105   2.62753
    R5        2.50897   0.00928   0.00000   0.01487   0.01487   2.52384
    R6        2.54650   0.04696   0.00000   0.08108   0.08108   2.62758
    R7        2.50895   0.00932   0.00000   0.01492   0.01492   2.52388
    R8        2.54650   0.04695   0.00000   0.08106   0.08106   2.62756
    R9        2.50899   0.00931   0.00000   0.01491   0.01491   2.52390
   R10        2.54649   0.04694   0.00000   0.08105   0.08105   2.62754
   R11        2.50897   0.00928   0.00000   0.01487   0.01487   2.52384
   R12        2.50895   0.00932   0.00000   0.01493   0.01493   2.52387
    A1        2.09441   0.00000   0.00000  -0.00001  -0.00001   2.09440
    A2        2.09439  -0.00002   0.00000  -0.00009  -0.00009   2.09430
    A3        2.09439   0.00003   0.00000   0.00010   0.00010   2.09449
    A4        2.09439   0.00000   0.00000  -0.00002  -0.00002   2.09437
    A5        2.09439   0.00001   0.00000   0.00005   0.00005   2.09444
    A6        2.09440  -0.00001   0.00000  -0.00003  -0.00003   2.09437
    A7        2.09439   0.00001   0.00000   0.00003   0.00003   2.09441
    A8        2.09441  -0.00003   0.00000  -0.00012  -0.00012   2.09428
    A9        2.09439   0.00003   0.00000   0.00010   0.00010   2.09449
   A10        2.09441   0.00000   0.00000  -0.00001  -0.00001   2.09440
   A11        2.09439   0.00003   0.00000   0.00010   0.00010   2.09448
   A12        2.09439  -0.00002   0.00000  -0.00009  -0.00009   2.09430
   A13        2.09439   0.00000   0.00000  -0.00002  -0.00002   2.09437
   A14        2.09439   0.00001   0.00000   0.00005   0.00005   2.09444
   A15        2.09441  -0.00001   0.00000  -0.00004  -0.00004   2.09437
   A16        2.09439   0.00001   0.00000   0.00003   0.00003   2.09441
   A17        2.09439   0.00003   0.00000   0.00010   0.00010   2.09449
   A18        2.09440  -0.00003   0.00000  -0.00012  -0.00012   2.09428
    D1        0.00007   0.00000   0.00000  -0.00003  -0.00003   0.00003
    D2       -3.14155   0.00000   0.00000  -0.00002  -0.00002  -3.14157
    D3       -3.14154   0.00000   0.00000  -0.00003  -0.00003  -3.14156
    D4        0.00003   0.00000   0.00000  -0.00001  -0.00001   0.00002
    D5        0.00000   0.00000   0.00000   0.00000   0.00000   0.00000
    D6        3.14158   0.00000   0.00000   0.00001   0.00001   3.14159
    D7       -3.14159   0.00000   0.00000  -0.00001  -0.00001   3.14159
    D8       -0.00001   0.00000   0.00000   0.00000   0.00000   0.00000
    D9       -0.00007   0.00000   0.00000   0.00003   0.00003  -0.00003
   D10        3.14154   0.00000   0.00000   0.00003   0.00003   3.14157
   D11        3.14155   0.00000   0.00000   0.00002   0.00002   3.14157
   D12       -0.00003   0.00000   0.00000   0.00001   0.00001  -0.00002
   D13        0.00001   0.00000   0.00000   0.00000   0.00000   0.00000
   D14       -3.14158   0.00000   0.00000  -0.00001  -0.00001  -3.14159
   D15        3.14159   0.00000   0.00000   0.00001   0.00001  -3.14159
   D16        0.00001   0.00000   0.00000   0.00000   0.00000   0.00000
   D17        0.00006   0.00000   0.00000  -0.00003  -0.00003   0.00002
   D18       -3.14156   0.00000   0.00000  -0.00001  -0.00001  -3.14157
   D19       -3.14155   0.00000   0.00000  -0.00002  -0.00002  -3.14157
   D20        0.00002   0.00000   0.00000  -0.00001  -0.00001   0.00002
   D21       -0.00006   0.00000   0.00000   0.00003   0.00003  -0.00002
   D22        3.14155   0.00000   0.00000   0.00002   0.00002   3.14157
   D23        3.14156   0.00000   0.00000   0.00001   0.00001   3.14157
   D24       -0.00002   0.00000   0.00000   0.00001   0.00001  -0.00002
         Item               Value     Threshold  Converged?
 Maximum Force            0.046960     0.000450     NO 
 RMS     Force            0.015953     0.000300     NO 
 Maximum Displacement     0.095133     0.001800     NO 
 RMS     Displacement     0.041874     0.001200     NO 
 Predicted change in Energy=-1.231533D-02
 GradGradGradGradGradGradGradGradGradGradGradGradGradGradGradGradGradGrad

                          Input orientation:                          
 ---------------------------------------------------------------------
 Center     Atomic      Atomic             Coordinates (Angstroms)
 Number     Number       Type             X           Y           Z
 ---------------------------------------------------------------------
      1          6           0        0.845688    1.066811   -0.282932
      2          6           0        1.378690   -0.173917    0.048494
      3          6           0        0.533000   -1.240713    0.331431
      4          6           0       -0.845687   -1.066795    0.282985
      5          6           0       -1.378689    0.173940   -0.048407
      6          6           0       -0.532998    1.240729   -0.331377
      7          9           0       -1.045080    2.432453   -0.649705
      8          9           0       -2.702935    0.341050   -0.094934
      9          9           0       -1.658098   -2.091460    0.554756
     10          9           0        1.045080   -2.432444    0.649736
     11          9           0        2.702935   -0.341014    0.095068
     12          9           0        1.658100    2.091467   -0.554726
 ---------------------------------------------------------------------
                    Distance matrix (angstroms):
                    1          2          3          4          5
     1  C    0.000000
     2  C    1.390446   0.000000
     3  C    2.408295   1.390432   0.000000
     4  C    2.780879   2.408334   1.390457   0.000000
     5  C    2.408334   2.780923   2.408334   1.390444   0.000000
     6  C    1.390456   2.408335   2.780867   2.408295   1.390433
     7  F    2.361039   3.627024   4.116444   3.626900   2.360875
     8  F    3.626954   4.116482   3.626987   2.360979   1.335559
     9  F    4.116472   3.627031   2.361049   1.335593   2.360913
    10  F    3.626901   2.360876   1.335578   2.361039   3.627024
    11  F    2.360979   1.335559   2.360921   3.626954   4.116481
    12  F    1.335592   2.360913   3.626920   4.116471   3.627031
                    6          7          8          9         10
     6  C    0.000000
     7  F    1.335577   0.000000
     8  F    2.360922   2.725842   0.000000
     9  F    3.626922   4.721472   2.725965   0.000000
    10  F    4.116445   5.452022   4.721697   2.726255   0.000000
    11  F    3.626986   4.721697   5.452040   4.721651   2.725843
    12  F    2.361049   2.726257   4.721651   5.452064   4.721472
                   11         12
    11  F    0.000000
    12  F    2.725964   0.000000
 Stoichiometry    C6F6
 Framework group  C1[X(C6F6)]
 Deg. of freedom    30
 Full point group                 C1      NOp   1
 Largest Abelian subgroup         C1      NOp   1
 Largest concise Abelian subgroup C1      NOp   1
                         Standard orientation:                         
 ---------------------------------------------------------------------
 Center     Atomic      Atomic             Coordinates (Angstroms)
 Number     Number       Type             X           Y           Z
 ---------------------------------------------------------------------
      1          6           0        0.582209   -1.262678    0.000006
      2          6           0        1.384637   -0.127138   -0.000012
      3          6           0        0.802422    1.135528    0.000006
      4          6           0       -0.582210    1.262677    0.000005
      5          6           0       -1.384637    0.127139   -0.000010
      6          6           0       -0.802422   -1.135529    0.000005
      7          9           0       -1.573285   -2.226187    0.000015
      8          9           0       -2.714605    0.249212   -0.000033
      9          9           0       -1.141547    2.475504    0.000015
     10          9           0        1.573284    2.226188    0.000021
     11          9           0        2.714605   -0.249212   -0.000039
     12          9           0        1.141548   -2.475503    0.000021
 ---------------------------------------------------------------------
 Rotational constants (GHZ):      1.0248679      1.0247593      0.5124068
 Standard basis: 6-311++G(d,p) (5D, 7F)
 There are   276 symmetry adapted cartesian basis functions of A   symmetry.
 There are   264 symmetry adapted basis functions of A   symmetry.
   264 basis functions,   432 primitive gaussians,   276 cartesian basis functions
    45 alpha electrons       45 beta electrons
       nuclear repulsion energy       732.4240760316 Hartrees.
 NAtoms=   12 NActive=   12 NUniq=   12 SFac= 1.00D+00 NAtFMM=   60 NAOKFM=F Big=F
 Integral buffers will be    131072 words long.
 Raffenetti 2 integral format.
 Two-electron integral symmetry is turned on.
 One-electron integrals computed using PRISM.
 NBasis=   264 RedAO= T EigKep=  1.39D-06  NBF=   264
 NBsUse=   264 1.00D-06 EigRej= -1.00D+00 NBFU=   264
 Initial guess from the checkpoint file:  "Anth_308.chk"
 B after Tr=     0.000000    0.000000    0.000000
         Rot=    0.907755    0.000000    0.000000    0.419500 Ang=  49.61 deg.
 ExpMin= 4.38D-02 ExpMax= 1.14D+04 ExpMxC= 1.72D+03 IAcc=2 IRadAn=         4 AccDes= 0.00D+00
 Harris functional with IExCor=  402 and IRadAn=       4 diagonalized for initial guess.
 HarFok:  IExCor=  402 AccDes= 0.00D+00 IRadAn=         4 IDoV= 1 UseB2=F ITyADJ=14
 ICtDFT=  3500011 ScaDFX=  1.000000  1.000000  1.000000  1.000000
 FoFCou: FMM=F IPFlag=           0 FMFlag=      100000 FMFlg1=           0
         NFxFlg=           0 DoJE=T BraDBF=F KetDBF=T FulRan=T
         wScrn=  0.000000 ICntrl=     500 IOpCl=  0 I1Cent=   200000004 NGrid=           0
         NMat0=    1 NMatS0=      1 NMatT0=    0 NMatD0=    1 NMtDS0=    0 NMtDT0=    0
 Petite list used in FoFCou.
 Keep R1 ints in memory in canonical form, NReq=622699132.
 Requested convergence on RMS density matrix=1.00D-08 within 128 cycles.
 Requested convergence on MAX density matrix=1.00D-06.
 Requested convergence on             energy=1.00D-06.
 No special actions if energy rises.
 SCF Done:  E(RB3LYP) =  -827.868932717     A.U. after   10 cycles
            NFock= 10  Conv=0.79D-08     -V/T= 2.0029
 Calling FoFJK, ICntrl=      2127 FMM=F ISym2X=0 I1Cent= 0 IOpClX= 0 NMat=1 NMatS=1 NMatT=0.
 ***** Axes restored to original set *****
 -------------------------------------------------------------------
 Center     Atomic                   Forces (Hartrees/Bohr)
 Number     Number              X              Y              Z
 -------------------------------------------------------------------
      1        6           0.001087319    0.001411345   -0.000374032
      2        6           0.001788586   -0.000227491    0.000062596
      3        6           0.000674272   -0.001669926    0.000446411
      4        6          -0.001086581   -0.001412578    0.000374982
      5        6          -0.001788894    0.000228211   -0.000064146
      6        6          -0.000675171    0.001669292   -0.000445533
      7        9           0.000685432   -0.001520019    0.000406322
      8        9           0.001722174   -0.000266662    0.000073006
      9        9           0.001063142    0.001369804   -0.000363083
     10        9          -0.000685527    0.001520705   -0.000405702
     11        9          -0.001721900    0.000266304   -0.000074539
     12        9          -0.001062851   -0.001368987    0.000363718
 -------------------------------------------------------------------
 Cartesian Forces:  Max     0.001788894 RMS     0.001031126

 GradGradGradGradGradGradGradGradGradGradGradGradGradGradGradGradGradGrad
 Berny optimization.
 Using GEDIIS/GDIIS optimizer.
 FormGI is forming the generalized inverse of G from B-inverse, IUseBI=4.
 Internal  Forces:  Max     0.001771478 RMS     0.000582605
 Search for a local minimum.
 Step number   2 out of a maximum of   64
 All quantities printed in internal units (Hartrees-Bohrs-Radians)
 Mixed Optimization -- En-DIIS/RFO-DIIS
 Update second derivatives using D2CorX and points    1    2
 DE= -1.13D-02 DEPred=-1.23D-02 R= 9.17D-01
 TightC=F SS=  1.41D+00  RLast= 2.02D-01 DXNew= 5.0454D-01 6.0568D-01
 Trust test= 9.17D-01 RLast= 2.02D-01 DXMaxT set to 5.05D-01
 ITU=  1  0
 Use linear search instead of GDIIS.
     Eigenvalues ---    0.02783   0.02783   0.02783   0.02783   0.02783
     Eigenvalues ---    0.02783   0.02783   0.02783   0.02783   0.25000
     Eigenvalues ---    0.25000   0.25000   0.25000   0.25000   0.25000
     Eigenvalues ---    0.25000   0.25000   0.25000   0.50094   0.50095
     Eigenvalues ---    0.55545   0.55546   0.55546   0.56172   0.60052
     Eigenvalues ---    0.60053   0.60055   0.60056   0.60057   0.62214
 RFO step:  Lambda=-2.96878629D-05 EMin= 2.78257069D-02
 Quartic linear search produced a step of -0.00551.
 Iteration  1 RMS(Cart)=  0.00091222 RMS(Int)=  0.00000012
 Iteration  2 RMS(Cart)=  0.00000021 RMS(Int)=  0.00000000
 Variable       Old X    -DE/DX   Delta X   Delta X   Delta X     New X
                                 (Linear)    (Quad)   (Total)
    R1        2.62756   0.00008  -0.00045   0.00065   0.00021   2.62777
    R2        2.62758   0.00004  -0.00045   0.00059   0.00014   2.62772
    R3        2.52390  -0.00177  -0.00008  -0.00284  -0.00292   2.52098
    R4        2.62753   0.00013  -0.00045   0.00074   0.00029   2.62782
    R5        2.52384  -0.00174  -0.00008  -0.00279  -0.00287   2.52097
    R6        2.62758   0.00004  -0.00045   0.00059   0.00014   2.62773
    R7        2.52388  -0.00172  -0.00008  -0.00275  -0.00283   2.52105
    R8        2.62756   0.00008  -0.00045   0.00065   0.00021   2.62777
    R9        2.52390  -0.00177  -0.00008  -0.00284  -0.00292   2.52098
   R10        2.62754   0.00013  -0.00045   0.00073   0.00029   2.62783
   R11        2.52384  -0.00174  -0.00008  -0.00279  -0.00287   2.52097
   R12        2.52387  -0.00172  -0.00008  -0.00275  -0.00283   2.52105
    A1        2.09440   0.00003   0.00000   0.00012   0.00012   2.09452
    A2        2.09430  -0.00004   0.00000  -0.00014  -0.00014   2.09416
    A3        2.09449   0.00001   0.00000   0.00002   0.00002   2.09451
    A4        2.09437   0.00002   0.00000   0.00010   0.00010   2.09447
    A5        2.09444  -0.00008   0.00000  -0.00031  -0.00031   2.09413
    A6        2.09437   0.00005   0.00000   0.00021   0.00021   2.09458
    A7        2.09441  -0.00006   0.00000  -0.00022  -0.00022   2.09419
    A8        2.09428   0.00006   0.00000   0.00025   0.00025   2.09453
    A9        2.09449  -0.00001   0.00000  -0.00003  -0.00003   2.09446
   A10        2.09440   0.00003   0.00000   0.00012   0.00012   2.09452
   A11        2.09448   0.00001   0.00000   0.00002   0.00002   2.09451
   A12        2.09430  -0.00004   0.00000  -0.00015  -0.00015   2.09416
   A13        2.09437   0.00002   0.00000   0.00010   0.00010   2.09447
   A14        2.09444  -0.00008   0.00000  -0.00031  -0.00031   2.09413
   A15        2.09437   0.00005   0.00000   0.00021   0.00021   2.09458
   A16        2.09441  -0.00006   0.00000  -0.00022  -0.00022   2.09419
   A17        2.09449  -0.00001   0.00000  -0.00003  -0.00003   2.09446
   A18        2.09428   0.00006   0.00000   0.00025   0.00025   2.09453
    D1        0.00003   0.00000   0.00000  -0.00003  -0.00003   0.00001
    D2       -3.14157   0.00000   0.00000  -0.00002  -0.00002  -3.14159
    D3       -3.14156   0.00000   0.00000  -0.00002  -0.00002  -3.14159
    D4        0.00002   0.00000   0.00000  -0.00002  -0.00002   0.00001
    D5        0.00000   0.00000   0.00000   0.00000   0.00000   0.00000
    D6        3.14159   0.00000   0.00000   0.00001   0.00001   3.14159
    D7        3.14159   0.00000   0.00000   0.00000   0.00000   3.14159
    D8        0.00000   0.00000   0.00000   0.00000   0.00000   0.00000
    D9       -0.00003   0.00000   0.00000   0.00003   0.00003  -0.00001
   D10        3.14157   0.00000   0.00000   0.00002   0.00002   3.14159
   D11        3.14157   0.00000   0.00000   0.00002   0.00002   3.14159
   D12       -0.00002   0.00000   0.00000   0.00002   0.00002  -0.00001
   D13        0.00000   0.00000   0.00000   0.00000   0.00000   0.00000
   D14       -3.14159   0.00000   0.00000  -0.00001  -0.00001  -3.14159
   D15       -3.14159   0.00000   0.00000   0.00000   0.00000  -3.14159
   D16        0.00000   0.00000   0.00000   0.00000   0.00000   0.00000
   D17        0.00002   0.00000   0.00000  -0.00002  -0.00002   0.00000
   D18       -3.14157   0.00000   0.00000  -0.00001  -0.00001  -3.14159
   D19       -3.14157   0.00000   0.00000  -0.00002  -0.00002  -3.14159
   D20        0.00002   0.00000   0.00000  -0.00001  -0.00001   0.00001
   D21       -0.00002   0.00000   0.00000   0.00002   0.00002   0.00000
   D22        3.14157   0.00000   0.00000   0.00002   0.00002   3.14159
   D23        3.14157   0.00000   0.00000   0.00001   0.00001   3.14159
   D24       -0.00002   0.00000   0.00000   0.00001   0.00001  -0.00001
         Item               Value     Threshold  Converged?
 Maximum Force            0.001771     0.000450     NO 
 RMS     Force            0.000583     0.000300     NO 
 Maximum Displacement     0.002672     0.001800     NO 
 RMS     Displacement     0.000912     0.001200     YES
 Predicted change in Energy=-1.514645D-05
 GradGradGradGradGradGradGradGradGradGradGradGradGradGradGradGradGradGrad

                          Input orientation:                          
 ---------------------------------------------------------------------
 Center     Atomic      Atomic             Coordinates (Angstroms)
 Number     Number       Type             X           Y           Z
 ---------------------------------------------------------------------
      1          6           0        0.845682    1.066876   -0.282944
      2          6           0        1.378730   -0.173951    0.048493
      3          6           0        0.533059   -1.240944    0.331498
      4          6           0       -0.845681   -1.066858    0.283007
      5          6           0       -1.378729    0.173969   -0.048425
      6          6           0       -0.533058    1.240962   -0.331435
      7          9           0       -1.044380    2.431426   -0.649419
      8          9           0       -2.701521    0.340485   -0.094808
      9          9           0       -1.657302   -2.090224    0.554440
     10          9           0        1.044380   -2.431410    0.649476
     11          9           0        2.701522   -0.340462    0.094887
     12          9           0        1.657303    2.090239   -0.554383
 ---------------------------------------------------------------------
                    Distance matrix (angstroms):
                    1          2          3          4          5
     1  C    0.000000
     2  C    1.390555   0.000000
     3  C    2.408590   1.390585   0.000000
     4  C    2.780976   2.408378   1.390533   0.000000
     5  C    2.408378   2.781011   2.408579   1.390554   0.000000
     6  C    1.390532   2.408579   2.781356   2.408590   1.390585
     7  F    2.359795   3.625815   4.115436   3.625864   2.359893
     8  F    3.625698   4.115049   3.625625   2.359555   1.334038
     9  F    4.115023   3.625683   2.359801   1.334047   2.359580
    10  F    3.625865   2.359893   1.334080   2.359796   3.625814
    11  F    2.359555   1.334037   2.359890   3.625698   4.115049
    12  F    1.334047   2.359580   3.625671   4.115023   3.625683
                    6          7          8          9         10
     6  C    0.000000
     7  F    1.334080   0.000000
     8  F    2.359890   2.725022   0.000000
     9  F    3.625672   4.719138   2.724015   0.000000
    10  F    4.115436   5.449516   4.719019   2.724798   0.000000
    11  F    3.625625   4.719018   5.449086   4.719343   2.725023
    12  F    2.359801   2.724800   4.719343   5.449070   4.719138
                   11         12
    11  F    0.000000
    12  F    2.724014   0.000000
 Stoichiometry    C6F6
 Framework group  C1[X(C6F6)]
 Deg. of freedom    30
 Full point group                 C1      NOp   1
 Largest Abelian subgroup         C1      NOp   1
 Largest concise Abelian subgroup C1      NOp   1
                         Standard orientation:                         
 ---------------------------------------------------------------------
 Center     Atomic      Atomic             Coordinates (Angstroms)
 Number     Number       Type             X           Y           Z
 ---------------------------------------------------------------------
      1          6           0        1.339109   -0.374492    0.000001
      2          6           0        0.993840    0.972516   -0.000002
      3          6           0       -0.345339    1.347118    0.000001
      4          6           0       -1.339109    0.374491    0.000001
      5          6           0       -0.993840   -0.972516   -0.000001
      6          6           0        0.345339   -1.347118    0.000001
      7          9           0        0.676667   -2.639399    0.000003
      8          9           0       -1.947599   -1.905254   -0.000007
      9          9           0       -2.623953    0.733459    0.000003
     10          9           0       -0.676668    2.639399    0.000004
     11          9           0        1.947600    1.905254   -0.000008
     12          9           0        2.623953   -0.733458    0.000004
 ---------------------------------------------------------------------
 Rotational constants (GHZ):      1.0257565      1.0256446      0.5128503
 Standard basis: 6-311++G(d,p) (5D, 7F)
 There are   276 symmetry adapted cartesian basis functions of A   symmetry.
 There are   264 symmetry adapted basis functions of A   symmetry.
   264 basis functions,   432 primitive gaussians,   276 cartesian basis functions
    45 alpha electrons       45 beta electrons
       nuclear repulsion energy       732.7675262253 Hartrees.
 NAtoms=   12 NActive=   12 NUniq=   12 SFac= 1.00D+00 NAtFMM=   60 NAOKFM=F Big=F
 Integral buffers will be    131072 words long.
 Raffenetti 2 integral format.
 Two-electron integral symmetry is turned on.
 One-electron integrals computed using PRISM.
 NBasis=   264 RedAO= T EigKep=  1.39D-06  NBF=   264
 NBsUse=   264 1.00D-06 EigRej= -1.00D+00 NBFU=   264
 Initial guess from the checkpoint file:  "Anth_308.chk"
 B after Tr=     0.000000    0.000000    0.000000
         Rot=    0.907690    0.000000    0.000000   -0.419641 Ang= -49.62 deg.
 Keep R1 ints in memory in canonical form, NReq=622699132.
 Requested convergence on RMS density matrix=1.00D-08 within 128 cycles.
 Requested convergence on MAX density matrix=1.00D-06.
 Requested convergence on             energy=1.00D-06.
 No special actions if energy rises.
 SCF Done:  E(RB3LYP) =  -827.868991721     A.U. after    8 cycles
            NFock=  8  Conv=0.84D-08     -V/T= 2.0029
 Calling FoFJK, ICntrl=      2127 FMM=F ISym2X=0 I1Cent= 0 IOpClX= 0 NMat=1 NMatS=1 NMatT=0.
 ***** Axes restored to original set *****
 -------------------------------------------------------------------
 Center     Atomic                   Forces (Hartrees/Bohr)
 Number     Number              X              Y              Z
 -------------------------------------------------------------------
      1        6           0.000340015    0.000411271   -0.000109052
      2        6           0.000560826   -0.000083966    0.000023283
      3        6           0.000231994   -0.000460305    0.000123003
      4        6          -0.000339597   -0.000411893    0.000109119
      5        6          -0.000560896    0.000084739   -0.000023253
      6        6          -0.000232491    0.000459908   -0.000123026
      7        9           0.000144064   -0.000421853    0.000112718
      8        9           0.000443032   -0.000011509    0.000003532
      9        9           0.000240853    0.000313534   -0.000083085
     10        9          -0.000144057    0.000422046   -0.000112534
     11        9          -0.000442939    0.000011325   -0.000003951
     12        9          -0.000240804   -0.000313297    0.000083246
 -------------------------------------------------------------------
 Cartesian Forces:  Max     0.000560896 RMS     0.000285848

 GradGradGradGradGradGradGradGradGradGradGradGradGradGradGradGradGradGrad
 Berny optimization.
 Using GEDIIS/GDIIS optimizer.
 FormGI is forming the generalized inverse of G from B-inverse, IUseBI=4.
 Internal  Forces:  Max     0.000458649 RMS     0.000151902
 Search for a local minimum.
 Step number   3 out of a maximum of   64
 All quantities printed in internal units (Hartrees-Bohrs-Radians)
 Mixed Optimization -- En-DIIS/RFO-DIIS
 Swapping is turned off.
 Update second derivatives using D2CorX and points    1    2    3
 DE= -5.90D-05 DEPred=-1.51D-05 R= 3.90D+00
 TightC=F SS=  1.41D+00  RLast= 7.11D-03 DXNew= 8.4853D-01 2.1319D-02
 Trust test= 3.90D+00 RLast= 7.11D-03 DXMaxT set to 5.05D-01
 ITU=  1  1  0
     Eigenvalues ---    0.02783   0.02783   0.02783   0.02783   0.02783
     Eigenvalues ---    0.02783   0.02783   0.02783   0.02783   0.24981
     Eigenvalues ---    0.25000   0.25000   0.25000   0.25000   0.25000
     Eigenvalues ---    0.25000   0.25000   0.25175   0.43725   0.50094
     Eigenvalues ---    0.50096   0.55546   0.55546   0.55682   0.59185
     Eigenvalues ---    0.60052   0.60055   0.60055   0.60057   0.60259
 En-DIIS/RFO-DIIS IScMMF=        0 using points:     3    2
 RFO step:  Lambda=-1.92103672D-06.
 DidBck=F Rises=F RFO-DIIS coefs:    1.32830   -0.32830
 Iteration  1 RMS(Cart)=  0.00034476 RMS(Int)=  0.00000006
 Iteration  2 RMS(Cart)=  0.00000009 RMS(Int)=  0.00000000
 Variable       Old X    -DE/DX   Delta X   Delta X   Delta X     New X
                                 (Linear)    (Quad)   (Total)
    R1        2.62777   0.00012   0.00007   0.00024   0.00031   2.62807
    R2        2.62772   0.00015   0.00005   0.00033   0.00038   2.62811
    R3        2.52098  -0.00040  -0.00096   0.00002  -0.00094   2.52004
    R4        2.62782   0.00007   0.00009   0.00008   0.00018   2.62800
    R5        2.52097  -0.00044  -0.00094  -0.00008  -0.00102   2.51995
    R6        2.62773   0.00015   0.00005   0.00033   0.00038   2.62811
    R7        2.52105  -0.00046  -0.00093  -0.00013  -0.00106   2.51999
    R8        2.62777   0.00012   0.00007   0.00024   0.00031   2.62807
    R9        2.52098  -0.00040  -0.00096   0.00002  -0.00094   2.52004
   R10        2.62783   0.00006   0.00009   0.00008   0.00017   2.62800
   R11        2.52097  -0.00044  -0.00094  -0.00008  -0.00102   2.51995
   R12        2.52105  -0.00046  -0.00093  -0.00013  -0.00106   2.51999
    A1        2.09452  -0.00003   0.00004  -0.00017  -0.00013   2.09439
    A2        2.09416   0.00001  -0.00005   0.00010   0.00005   2.09420
    A3        2.09451   0.00002   0.00001   0.00008   0.00008   2.09459
    A4        2.09447  -0.00001   0.00003  -0.00009  -0.00006   2.09441
    A5        2.09413   0.00006  -0.00010   0.00041   0.00031   2.09444
    A6        2.09458  -0.00005   0.00007  -0.00032  -0.00025   2.09434
    A7        2.09419   0.00004  -0.00007   0.00027   0.00019   2.09439
    A8        2.09453  -0.00007   0.00008  -0.00043  -0.00035   2.09419
    A9        2.09446   0.00003  -0.00001   0.00017   0.00016   2.09461
   A10        2.09452  -0.00003   0.00004  -0.00017  -0.00013   2.09439
   A11        2.09451   0.00002   0.00001   0.00008   0.00009   2.09459
   A12        2.09416   0.00001  -0.00005   0.00010   0.00005   2.09420
   A13        2.09447  -0.00001   0.00003  -0.00009  -0.00006   2.09441
   A14        2.09413   0.00006  -0.00010   0.00041   0.00031   2.09444
   A15        2.09458  -0.00005   0.00007  -0.00032  -0.00025   2.09434
   A16        2.09419   0.00004  -0.00007   0.00027   0.00019   2.09439
   A17        2.09446   0.00003  -0.00001   0.00017   0.00016   2.09461
   A18        2.09453  -0.00007   0.00008  -0.00043  -0.00035   2.09418
    D1        0.00001   0.00000  -0.00001   0.00000  -0.00001   0.00000
    D2       -3.14159   0.00000  -0.00001   0.00000  -0.00001   3.14159
    D3       -3.14159   0.00000  -0.00001   0.00000  -0.00001   3.14159
    D4        0.00001   0.00000  -0.00001   0.00000  -0.00001   0.00000
    D5        0.00000   0.00000   0.00000   0.00000   0.00000   0.00000
    D6        3.14159   0.00000   0.00000   0.00000   0.00000   3.14159
    D7        3.14159   0.00000   0.00000   0.00000   0.00000  -3.14159
    D8        0.00000   0.00000   0.00000   0.00000   0.00000   0.00000
    D9       -0.00001   0.00000   0.00001   0.00000   0.00001   0.00000
   D10        3.14159   0.00000   0.00001   0.00000   0.00001  -3.14159
   D11        3.14159   0.00000   0.00001   0.00000   0.00001  -3.14159
   D12       -0.00001   0.00000   0.00001   0.00000   0.00001   0.00000
   D13        0.00000   0.00000   0.00000   0.00000   0.00000   0.00000
   D14       -3.14159   0.00000   0.00000   0.00000   0.00000  -3.14159
   D15       -3.14159   0.00000   0.00000   0.00000   0.00000   3.14159
   D16        0.00000   0.00000   0.00000   0.00000   0.00000   0.00000
   D17        0.00000   0.00000  -0.00001   0.00000   0.00000   0.00000
   D18       -3.14159   0.00000   0.00000   0.00000   0.00000   3.14159
   D19       -3.14159   0.00000  -0.00001   0.00000   0.00000   3.14159
   D20        0.00001   0.00000   0.00000   0.00000  -0.00001   0.00000
   D21        0.00000   0.00000   0.00001   0.00000   0.00000   0.00000
   D22        3.14159   0.00000   0.00001   0.00000   0.00000  -3.14159
   D23        3.14159   0.00000   0.00000   0.00000   0.00000  -3.14159
   D24       -0.00001   0.00000   0.00000   0.00000   0.00001   0.00000
         Item               Value     Threshold  Converged?
 Maximum Force            0.000459     0.000450     NO 
 RMS     Force            0.000152     0.000300     YES
 Maximum Displacement     0.001166     0.001800     YES
 RMS     Displacement     0.000345     0.001200     YES
 Predicted change in Energy=-1.490302D-06
 GradGradGradGradGradGradGradGradGradGradGradGradGradGradGradGradGradGrad

                          Input orientation:                          
 ---------------------------------------------------------------------
 Center     Atomic      Atomic             Coordinates (Angstroms)
 Number     Number       Type             X           Y           Z
 ---------------------------------------------------------------------
      1          6           0        0.845845    1.067020   -0.282981
      2          6           0        1.378931   -0.173962    0.048494
      3          6           0        0.533117   -1.240961    0.331504
      4          6           0       -0.845844   -1.067002    0.283046
      5          6           0       -1.378930    0.173979   -0.048429
      6          6           0       -0.533116    1.240979   -0.331439
      7          9           0       -1.044556    2.430811   -0.649251
      8          9           0       -2.701130    0.340842   -0.094911
      9          9           0       -1.657132   -2.090009    0.554387
     10          9           0        1.044556   -2.430793    0.649317
     11          9           0        2.701131   -0.340824    0.094974
     12          9           0        1.657133    2.090027   -0.554321
 ---------------------------------------------------------------------
                    Distance matrix (angstroms):
                    1          2          3          4          5
     1  C    0.000000
     2  C    1.390717   0.000000
     3  C    2.408769   1.390678   0.000000
     4  C    2.781411   2.408767   1.390734   0.000000
     5  C    2.408767   2.781412   2.408802   1.390716   0.000000
     6  C    1.390734   2.408802   2.781433   2.408769   1.390678
     7  F    2.359596   3.625600   4.114953   3.625377   2.359255
     8  F    3.625429   4.114910   3.625504   2.359441   1.333498
     9  F    4.114962   3.625582   2.359608   1.333550   2.359327
    10  F    3.625378   2.359255   1.333520   2.359596   3.625600
    11  F    2.359441   1.333498   2.359339   3.625430   4.114910
    12  F    1.333550   2.359327   3.625407   4.114962   3.625582
                    6          7          8          9         10
     6  C    0.000000
     7  F    1.333520   0.000000
     8  F    2.359339   2.723877   0.000000
     9  F    3.625408   4.718242   2.724070   0.000000
    10  F    4.114953   5.448473   4.718686   2.724750   0.000000
    11  F    3.625504   4.718686   5.448408   4.718598   2.723877
    12  F    2.359608   2.724751   4.718598   5.448512   4.718242
                   11         12
    11  F    0.000000
    12  F    2.724069   0.000000
 Stoichiometry    C6F6
 Framework group  C1[X(C6F6)]
 Deg. of freedom    30
 Full point group                 C1      NOp   1
 Largest Abelian subgroup         C1      NOp   1
 Largest concise Abelian subgroup C1      NOp   1
                         Standard orientation:                         
 ---------------------------------------------------------------------
 Center     Atomic      Atomic             Coordinates (Angstroms)
 Number     Number       Type             X           Y           Z
 ---------------------------------------------------------------------
      1          6           0        0.564571   -1.270953    0.000000
      2          6           0        1.382965   -0.146531    0.000000
      3          6           0        0.818420    1.124402    0.000000
      4          6           0       -0.564571    1.270953    0.000000
      5          6           0       -1.382965    0.146532    0.000000
      6          6           0       -0.818420   -1.124403    0.000000
      7          9           0       -1.603399   -2.202402    0.000000
      8          9           0       -2.709046    0.286985    0.000001
      9          9           0       -1.106177    2.489567    0.000000
     10          9           0        1.603399    2.202403    0.000000
     11          9           0        2.709045   -0.286986    0.000001
     12          9           0        1.106177   -2.489567    0.000000
 ---------------------------------------------------------------------
 Rotational constants (GHZ):      1.0260175      1.0258113      0.5129572
 Standard basis: 6-311++G(d,p) (5D, 7F)
 There are   276 symmetry adapted cartesian basis functions of A   symmetry.
 There are   264 symmetry adapted basis functions of A   symmetry.
   264 basis functions,   432 primitive gaussians,   276 cartesian basis functions
    45 alpha electrons       45 beta electrons
       nuclear repulsion energy       732.8550397198 Hartrees.
 NAtoms=   12 NActive=   12 NUniq=   12 SFac= 1.00D+00 NAtFMM=   60 NAOKFM=F Big=F
 Integral buffers will be    131072 words long.
 Raffenetti 2 integral format.
 Two-electron integral symmetry is turned on.
 One-electron integrals computed using PRISM.
 NBasis=   264 RedAO= T EigKep=  1.39D-06  NBF=   264
 NBsUse=   264 1.00D-06 EigRej= -1.00D+00 NBFU=   264
 Initial guess from the checkpoint file:  "Anth_308.chk"
 B after Tr=     0.000000    0.000000    0.000000
         Rot=    0.904730    0.000000    0.000000    0.425986 Ang=  50.43 deg.
 Keep R1 ints in memory in canonical form, NReq=622699132.
 Requested convergence on RMS density matrix=1.00D-08 within 128 cycles.
 Requested convergence on MAX density matrix=1.00D-06.
 Requested convergence on             energy=1.00D-06.
 No special actions if energy rises.
 SCF Done:  E(RB3LYP) =  -827.868952235     A.U. after    7 cycles
            NFock=  7  Conv=0.66D-08     -V/T= 2.0029
 Calling FoFJK, ICntrl=      2127 FMM=F ISym2X=0 I1Cent= 0 IOpClX= 0 NMat=1 NMatS=1 NMatT=0.
 ***** Axes restored to original set *****
 -------------------------------------------------------------------
 Center     Atomic                   Forces (Hartrees/Bohr)
 Number     Number              X              Y              Z
 -------------------------------------------------------------------
      1        6          -0.000018938    0.000017834   -0.000004749
      2        6          -0.000037305    0.000029237   -0.000007901
      3        6          -0.000048249   -0.000024060    0.000006374
      4        6           0.000019156   -0.000018011    0.000004820
      5        6           0.000037325   -0.000028941    0.000007755
      6        6           0.000048001    0.000023950   -0.000006311
      7        9           0.000008894    0.000063365   -0.000016881
      8        9          -0.000029072   -0.000037731    0.000010039
      9        9          -0.000005316    0.000011137   -0.000002985
     10        9          -0.000008866   -0.000063360    0.000016850
     11        9           0.000029079    0.000037704   -0.000009964
     12        9           0.000005291   -0.000011122    0.000002953
 -------------------------------------------------------------------
 Cartesian Forces:  Max     0.000063365 RMS     0.000026715

 GradGradGradGradGradGradGradGradGradGradGradGradGradGradGradGradGradGrad
 Berny optimization.
 Using GEDIIS/GDIIS optimizer.
 FormGI is forming the generalized inverse of G from B-inverse, IUseBI=4.
 Internal  Forces:  Max     0.000076838 RMS     0.000030728
 Search for a local minimum.
 Step number   4 out of a maximum of   64
 All quantities printed in internal units (Hartrees-Bohrs-Radians)
 Mixed Optimization -- En-DIIS/RFO-DIIS
 Swapping is turned off.
 Update second derivatives using D2CorX and points    1    2    3    4
 DE=  3.95D-05 DEPred=-1.49D-06 R=-2.65D+01
 Trust test=-2.65D+01 RLast= 2.71D-03 DXMaxT set to 2.52D-01
 ITU= -1  1  1  0
     Eigenvalues ---    0.02783   0.02783   0.02783   0.02783   0.02783
     Eigenvalues ---    0.02783   0.02783   0.02783   0.02783   0.24850
     Eigenvalues ---    0.25000   0.25000   0.25000   0.25000   0.25000
     Eigenvalues ---    0.25000   0.25002   0.26500   0.42982   0.50096
     Eigenvalues ---    0.50096   0.55546   0.55546   0.56738   0.59462
     Eigenvalues ---    0.60052   0.60055   0.60057   0.60060   0.61021
 En-DIIS/RFO-DIIS IScMMF=        0 using points:     4    3    2
 RFO step:  Lambda=-8.13189589D-08.
 DidBck=T Rises=F RFO-DIIS coefs:    0.67513    0.42742   -0.10255
 Iteration  1 RMS(Cart)=  0.00012001 RMS(Int)=  0.00000001
 Iteration  2 RMS(Cart)=  0.00000001 RMS(Int)=  0.00000000
 Variable       Old X    -DE/DX   Delta X   Delta X   Delta X     New X
                                 (Linear)    (Quad)   (Total)
    R1        2.62807   0.00000  -0.00008   0.00008   0.00000   2.62808
    R2        2.62811  -0.00004  -0.00011   0.00006  -0.00005   2.62806
    R3        2.52004  -0.00001   0.00001   0.00000   0.00000   2.52005
    R4        2.62800   0.00008  -0.00003   0.00012   0.00009   2.62809
    R5        2.51995   0.00002   0.00004   0.00000   0.00003   2.51998
    R6        2.62811  -0.00004  -0.00011   0.00006  -0.00005   2.62806
    R7        2.51999   0.00006   0.00005   0.00002   0.00007   2.52006
    R8        2.62807   0.00000  -0.00008   0.00008   0.00000   2.62808
    R9        2.52004  -0.00001   0.00001   0.00000   0.00000   2.52005
   R10        2.62800   0.00008  -0.00003   0.00012   0.00009   2.62809
   R11        2.51995   0.00002   0.00004   0.00000   0.00003   2.51998
   R12        2.51999   0.00006   0.00005   0.00002   0.00007   2.52006
    A1        2.09439   0.00001   0.00006  -0.00003   0.00003   2.09442
    A2        2.09420  -0.00002  -0.00003  -0.00002  -0.00005   2.09415
    A3        2.09459   0.00001  -0.00003   0.00005   0.00002   2.09461
    A4        2.09441   0.00003   0.00003   0.00006   0.00009   2.09450
    A5        2.09444  -0.00007  -0.00013  -0.00006  -0.00019   2.09425
    A6        2.09434   0.00004   0.00010   0.00000   0.00010   2.09444
    A7        2.09439  -0.00004  -0.00009  -0.00003  -0.00012   2.09427
    A8        2.09419   0.00006   0.00014   0.00003   0.00017   2.09435
    A9        2.09461  -0.00002  -0.00005   0.00000  -0.00005   2.09456
   A10        2.09439   0.00001   0.00006  -0.00003   0.00003   2.09442
   A11        2.09459   0.00001  -0.00003   0.00005   0.00002   2.09461
   A12        2.09420  -0.00002  -0.00003  -0.00002  -0.00005   2.09416
   A13        2.09441   0.00003   0.00003   0.00006   0.00009   2.09450
   A14        2.09444  -0.00007  -0.00013  -0.00006  -0.00019   2.09425
   A15        2.09434   0.00004   0.00010   0.00000   0.00010   2.09444
   A16        2.09439  -0.00004  -0.00009  -0.00003  -0.00012   2.09427
   A17        2.09461  -0.00002  -0.00005   0.00000  -0.00005   2.09456
   A18        2.09418   0.00006   0.00014   0.00003   0.00017   2.09435
    D1        0.00000   0.00000   0.00000   0.00000   0.00000   0.00000
    D2        3.14159   0.00000   0.00000   0.00000   0.00000   3.14159
    D3        3.14159   0.00000   0.00000   0.00000   0.00000   3.14159
    D4        0.00000   0.00000   0.00000   0.00000   0.00000   0.00000
    D5        0.00000   0.00000   0.00000   0.00000   0.00000   0.00000
    D6        3.14159   0.00000   0.00000   0.00000   0.00000   3.14159
    D7       -3.14159   0.00000   0.00000   0.00000   0.00000  -3.14159
    D8        0.00000   0.00000   0.00000   0.00000   0.00000   0.00000
    D9        0.00000   0.00000   0.00000   0.00000   0.00000   0.00000
   D10       -3.14159   0.00000   0.00000   0.00000   0.00000  -3.14159
   D11       -3.14159   0.00000   0.00000   0.00000   0.00000  -3.14159
   D12        0.00000   0.00000   0.00000   0.00000   0.00000   0.00000
   D13        0.00000   0.00000   0.00000   0.00000   0.00000   0.00000
   D14       -3.14159   0.00000   0.00000   0.00000   0.00000  -3.14159
   D15        3.14159   0.00000   0.00000   0.00000   0.00000   3.14159
   D16        0.00000   0.00000   0.00000   0.00000   0.00000   0.00000
   D17        0.00000   0.00000   0.00000   0.00000   0.00000   0.00000
   D18        3.14159   0.00000   0.00000   0.00000   0.00000   3.14159
   D19        3.14159   0.00000   0.00000   0.00000   0.00000   3.14159
   D20        0.00000   0.00000   0.00000   0.00000   0.00000   0.00000
   D21        0.00000   0.00000   0.00000   0.00000   0.00000   0.00000
   D22       -3.14159   0.00000   0.00000   0.00000   0.00000  -3.14159
   D23       -3.14159   0.00000   0.00000   0.00000   0.00000  -3.14159
   D24        0.00000   0.00000   0.00000   0.00000   0.00000   0.00000
         Item               Value     Threshold  Converged?
 Maximum Force            0.000077     0.000450     YES
 RMS     Force            0.000031     0.000300     YES
 Maximum Displacement     0.000420     0.001800     YES
 RMS     Displacement     0.000120     0.001200     YES
 Predicted change in Energy=-6.320138D-08
 Optimization completed.
    -- Stationary point found.
                           ----------------------------
                           !   Optimized Parameters   !
                           ! (Angstroms and Degrees)  !
 --------------------------                            --------------------------
 ! Name  Definition              Value          Derivative Info.                !
 --------------------------------------------------------------------------------
 ! R1    R(1,2)                  1.3907         -DE/DX =    0.0                 !
 ! R2    R(1,6)                  1.3907         -DE/DX =    0.0                 !
 ! R3    R(1,12)                 1.3336         -DE/DX =    0.0                 !
 ! R4    R(2,3)                  1.3907         -DE/DX =    0.0001              !
 ! R5    R(2,11)                 1.3335         -DE/DX =    0.0                 !
 ! R6    R(3,4)                  1.3907         -DE/DX =    0.0                 !
 ! R7    R(3,10)                 1.3335         -DE/DX =    0.0001              !
 ! R8    R(4,5)                  1.3907         -DE/DX =    0.0                 !
 ! R9    R(4,9)                  1.3336         -DE/DX =    0.0                 !
 ! R10   R(5,6)                  1.3907         -DE/DX =    0.0001              !
[...]
                   11         12
    11  F    0.000000
    12  F    2.724069   0.000000
 Stoichiometry    C6F6
 Framework group  C1[X(C6F6)]
 Deg. of freedom    30
 Full point group                 C1      NOp   1
 Largest Abelian subgroup         C1      NOp   1
 Largest concise Abelian subgroup C1      NOp   1
                         Standard orientation:                         
 ---------------------------------------------------------------------
 Center     Atomic      Atomic             Coordinates (Angstroms)
 Number     Number       Type             X           Y           Z
 ---------------------------------------------------------------------
      1          6           0        0.564571   -1.270953    0.000000
      2          6           0        1.382965   -0.146531    0.000000
      3          6           0        0.818420    1.124402    0.000000
      4          6           0       -0.564571    1.270953    0.000000
      5          6           0       -1.382965    0.146532    0.000000
      6          6           0       -0.818420   -1.124403    0.000000
      7          9           0       -1.603399   -2.202402    0.000000
      8          9           0       -2.709046    0.286985    0.000001
      9          9           0       -1.106177    2.489567    0.000000
     10          9           0        1.603399    2.202403    0.000000
     11          9           0        2.709045   -0.286986    0.000001
     12          9           0        1.106177   -2.489567    0.000000
 ---------------------------------------------------------------------
 Rotational constants (GHZ):      1.0260175      1.0258113      0.5129572

 **********************************************************************

            Population analysis using the SCF density.

 **********************************************************************

 Orbital symmetries:
       Occupied  (A) (A) (A) (A) (A) (A) (A) (A) (A) (A) (A) (A)
                 (A) (A) (A) (A) (A) (A) (A) (A) (A) (A) (A) (A)
                 (A) (A) (A) (A) (A) (A) (A) (A) (A) (A) (A) (A)
                 (A) (A) (A) (A) (A) (A) (A) (A) (A)
       Virtual   (A) (A) (A) (A) (A) (A) (A) (A) (A) (A) (A) (A)
                 (A) (A) (A) (A) (A) (A) (A) (A) (A) (A) (A) (A)
                 (A) (A) (A) (A) (A) (A) (A) (A) (A) (A) (A) (A)
                 (A) (A) (A) (A) (A) (A) (A) (A) (A) (A) (A) (A)
                 (A) (A) (A) (A) (A) (A) (A) (A) (A) (A) (A) (A)
                 (A) (A) (A) (A) (A) (A) (A) (A) (A) (A) (A) (A)
                 (A) (A) (A) (A) (A) (A) (A) (A) (A) (A) (A) (A)
                 (A) (A) (A) (A) (A) (A) (A) (A) (A) (A) (A) (A)
                 (A) (A) (A) (A) (A) (A) (A) (A) (A) (A) (A) (A)
                 (A) (A) (A) (A) (A) (A) (A) (A) (A) (A) (A) (A)
                 (A) (A) (A) (A) (A) (A) (A) (A) (A) (A) (A) (A)
                 (A) (A) (A) (A) (A) (A) (A) (A) (A) (A) (A) (A)
                 (A) (A) (A) (A) (A) (A) (A) (A) (A) (A) (A) (A)
                 (A) (A) (A) (A) (A) (A) (A) (A) (A) (A) (A) (A)
                 (A) (A) (A) (A) (A) (A) (A) (A) (A) (A) (A) (A)
                 (A) (A) (A) (A) (A) (A) (A) (A) (A) (A) (A) (A)
                 (A) (A) (A) (A) (A) (A) (A) (A) (A) (A) (A) (A)
                 (A) (A) (A) (A) (A) (A) (A) (A) (A) (A) (A) (A)
                 (A) (A) (A)
 The electronic state is 1-A.
 Alpha  occ. eigenvalues --  -24.74465 -24.74465 -24.74464 -24.74464 -24.74463
 Alpha  occ. eigenvalues --  -24.74463 -10.32329 -10.32306 -10.32305 -10.32250
 Alpha  occ. eigenvalues --  -10.32249 -10.32222  -1.30072  -1.29389  -1.29387
 Alpha  occ. eigenvalues --   -1.28085  -1.28084  -1.27438  -0.93962  -0.81970
 Alpha  occ. eigenvalues --   -0.81969  -0.70666  -0.70664  -0.64005  -0.63613
 Alpha  occ. eigenvalues --   -0.61976  -0.58531  -0.58530  -0.56920  -0.56920
 Alpha  occ. eigenvalues --   -0.56386  -0.53173  -0.53171  -0.50325  -0.50324
 Alpha  occ. eigenvalues --   -0.49442  -0.47929  -0.47927  -0.46806  -0.44508
 Alpha  occ. eigenvalues --   -0.44508  -0.41683  -0.38646  -0.29452  -0.29452
 Alpha virt. eigenvalues --   -0.06532  -0.05447  -0.05446   0.00622   0.00626
 Alpha virt. eigenvalues --    0.03352   0.03746   0.05347   0.05348   0.07188
 Alpha virt. eigenvalues --    0.07813   0.07830   0.08183   0.09908   0.09917
 Alpha virt. eigenvalues --    0.11421   0.11641   0.12062   0.12070   0.13361
 Alpha virt. eigenvalues --    0.13384   0.15110   0.15111   0.16314   0.16977
 Alpha virt. eigenvalues --    0.17053   0.17068   0.19632   0.19634   0.22251
 Alpha virt. eigenvalues --    0.23642   0.23648   0.24914   0.25364   0.27900
 Alpha virt. eigenvalues --    0.29062   0.29067   0.30459   0.30461   0.30683
 Alpha virt. eigenvalues --    0.31321   0.31341   0.34719   0.34723   0.35311
 Alpha virt. eigenvalues --    0.35529   0.35536   0.35618   0.37175   0.37182
 Alpha virt. eigenvalues --    0.39521   0.39534   0.40001   0.40028   0.41785
 Alpha virt. eigenvalues --    0.45291   0.49217   0.49220   0.49278   0.49288
 Alpha virt. eigenvalues --    0.51103   0.52540   0.52546   0.52842   0.53402
 Alpha virt. eigenvalues --    0.56608   0.59038   0.59039   0.59359   0.62999
 Alpha virt. eigenvalues --    0.70191   0.70201   0.71922   0.71924   0.75678
 Alpha virt. eigenvalues --    0.79963   0.84113   0.84131   0.89913   0.89916
 Alpha virt. eigenvalues --    0.90167   0.93752   0.93757   0.97908   1.00005
 Alpha virt. eigenvalues --    1.03371   1.03376   1.10910   1.10911   1.13953
 Alpha virt. eigenvalues --    1.13953   1.16795   1.23490   1.24260   1.32878
 Alpha virt. eigenvalues --    1.36715   1.37712   1.37716   1.39140   1.39143
 Alpha virt. eigenvalues --    1.40475   1.40478   1.41356   1.41466   1.41473
 Alpha virt. eigenvalues --    1.42625   1.47175   1.49963   1.50647   1.50655
 Alpha virt. eigenvalues --    1.51248   1.51501   1.51514   1.59435   1.59442
 Alpha virt. eigenvalues --    1.60250   1.70070   1.70072   1.72814   1.72822
 Alpha virt. eigenvalues --    1.78025   1.78032   1.80877   1.80881   1.87207
 Alpha virt. eigenvalues --    1.90070   1.96664   1.96676   2.04196   2.04208
 Alpha virt. eigenvalues --    2.11421   2.11428   2.15189   2.15192   2.20491
 Alpha virt. eigenvalues --    2.21274   2.32801   2.37180   2.38919   2.38932
 Alpha virt. eigenvalues --    2.50576   2.63254   2.63257   2.77040   2.77044
 Alpha virt. eigenvalues --    2.95981   3.02238   3.03384   3.06012   3.06017
 Alpha virt. eigenvalues --    3.08743   3.15366   3.15368   3.37634   3.37635
 Alpha virt. eigenvalues --    3.65757   3.69640   3.69641   3.72368   3.73517
 Alpha virt. eigenvalues --    3.73518   3.73696   3.74400   3.74401   3.75728
 Alpha virt. eigenvalues --    3.80097   3.80099   3.80489   3.87571   3.89433
 Alpha virt. eigenvalues --    3.92819   3.92820   3.93705   3.93707   3.97363
 Alpha virt. eigenvalues --    3.97366   4.01797   4.03412   4.03421   4.14100
 Alpha virt. eigenvalues --    4.14103   4.20167   4.60278   4.78420   4.78428
 Alpha virt. eigenvalues --    4.87210   4.89988   4.89999   4.97756   6.22501
 Alpha virt. eigenvalues --    6.26222   6.26224   6.29302   6.29303   6.30937
 Alpha virt. eigenvalues --    6.34325   6.37983   6.38001   6.42735   6.42747
 Alpha virt. eigenvalues --    6.45039   6.52700   6.70184   6.70188   6.79059
 Alpha virt. eigenvalues --    6.79064   6.87692  23.28971  23.76655  23.76664
 Alpha virt. eigenvalues --   23.94168  23.94181  24.05546  66.69458  66.73680
 Alpha virt. eigenvalues --   66.73682  66.77188  66.77193  66.85239
          Condensed to atoms (all electrons):
               1          2          3          4          5          6
     1  C   15.466503   0.584534  -3.573783  -3.723567  -3.571796   0.582234
     2  C    0.584534  15.473993   0.578142  -3.571796  -3.728368  -3.572319
     3  C   -3.573783   0.578142  15.482332   0.582244  -3.572320  -3.732673
     4  C   -3.723567  -3.571796   0.582244  15.466504   0.584524  -3.573784
     5  C   -3.571796  -3.728368  -3.572320   0.584524  15.473993   0.578152
     6  C    0.582234  -3.572319  -3.732673  -3.573784   0.578152  15.482331
     7  F   -0.188830  -0.076962   0.029216  -0.076833  -0.188789   0.546842
     8  F   -0.076950   0.029194  -0.077024  -0.189076   0.547908  -0.189123
     9  F    0.029155  -0.076973  -0.189108   0.547779  -0.189044  -0.076899
    10  F   -0.076833  -0.188790   0.546842  -0.188830  -0.076962   0.029216
    11  F   -0.189076   0.547908  -0.189123  -0.076950   0.029194  -0.077024
    12  F    0.547779  -0.189044  -0.076899   0.029155  -0.076973  -0.189108
               7          8          9         10         11         12
     1  C   -0.188830  -0.076950   0.029155  -0.076833  -0.189076   0.547779
     2  C   -0.076962   0.029194  -0.076973  -0.188790   0.547908  -0.189044
     3  C    0.029216  -0.077024  -0.189108   0.546842  -0.189123  -0.076899
     4  C   -0.076833  -0.189076   0.547779  -0.188830  -0.076950   0.029155
     5  C   -0.188789   0.547908  -0.189044  -0.076962   0.029194  -0.076973
     6  C    0.546842  -0.189123  -0.076899   0.029216  -0.077024  -0.189108
     7  F    9.138873   0.003368   0.000486  -0.000113   0.000487   0.003360
     8  F    0.003368   9.138540   0.003375   0.000487  -0.000113   0.000487
     9  F    0.000486   0.003375   9.138584   0.003360   0.000487  -0.000113
    10  F   -0.000113   0.000487   0.003360   9.138873   0.003368   0.000486
    11  F    0.000487  -0.000113   0.000487   0.003368   9.138540   0.003375
    12  F    0.003360   0.000487  -0.000113   0.000486   0.003375   9.138584
 Mulliken charges:
               1
     1  C    0.190629
     2  C    0.190481
     3  C    0.192155
     4  C    0.190629
     5  C    0.190481
     6  C    0.192155
     7  F   -0.191104
     8  F   -0.191072
     9  F   -0.191089
    10  F   -0.191104
    11  F   -0.191072
    12  F   -0.191089
 Sum of Mulliken charges =   0.00000
 Mulliken charges with hydrogens summed into heavy atoms:
               1
     1  C    0.190629
     2  C    0.190481
     3  C    0.192155
     4  C    0.190629
     5  C    0.190481
     6  C    0.192155
     7  F   -0.191104
     8  F   -0.191072
     9  F   -0.191089
    10  F   -0.191104
    11  F   -0.191072
    12  F   -0.191089
 Electronic spatial extent (au):  <R**2>=           1829.5291
 Charge=              0.0000 electrons
 Dipole moment (field-independent basis, Debye):
    X=              0.0000    Y=              0.0000    Z=              0.0000  Tot=              0.0000
 Quadrupole moment (field-independent basis, Debye-Ang):
   XX=            -70.3454   YY=            -70.3436   ZZ=            -60.7375
   XY=              0.0008   XZ=              0.0000   YZ=              0.0000
 Traceless Quadrupole moment (field-independent basis, Debye-Ang):
   XX=             -3.2033   YY=             -3.2014   ZZ=              6.4047
   XY=              0.0008   XZ=              0.0000   YZ=              0.0000
 Octapole moment (field-independent basis, Debye-Ang**2):
  XXX=              0.0000  YYY=              0.0000  ZZZ=              0.0000  XYY=              0.0000
  XXY=              0.0000  XXZ=              0.0000  XZZ=              0.0000  YZZ=              0.0000
  YYZ=              0.0000  XYZ=              0.0000
 Hexadecapole moment (field-independent basis, Debye-Ang**3):
 XXXX=           -963.9644 YYYY=           -963.8152 ZZZZ=            -53.1911 XXXY=             -0.0027
 XXXZ=              0.0000 YYYX=              0.0058 YYYZ=              0.0000 ZZZX=              0.0000
 ZZZY=              0.0000 XXYY=           -321.3076 XXZZ=           -155.1083 YYZZ=           -155.0855
 XXYZ=              0.0000 YYXZ=              0.0000 ZZXY=              0.0002
 N-N= 7.328550397198D+02 E-N=-3.425254245355D+03  KE= 8.254837679656D+02

 **********************************************************************

            Electrostatic Properties Using The SCF Density

 **********************************************************************

       Atomic Center    1 is at   0.564571 -1.270953  0.000000
       Atomic Center    2 is at   1.382965 -0.146531  0.000000
       Atomic Center    3 is at   0.818420  1.124402  0.000000
       Atomic Center    4 is at  -0.564571  1.270953  0.000000
       Atomic Center    5 is at  -1.382965  0.146532  0.000000
       Atomic Center    6 is at  -0.818420 -1.124403  0.000000
       Atomic Center    7 is at  -1.603399 -2.202402  0.000000
       Atomic Center    8 is at  -2.709046  0.286985  0.000001
       Atomic Center    9 is at  -1.106177  2.489567  0.000000
       Atomic Center   10 is at   1.603399  2.202403  0.000000
       Atomic Center   11 is at   2.709045 -0.286986  0.000001
       Atomic Center   12 is at   1.106177 -2.489567  0.000000
 -----------------------------------------------------------------

              Electrostatic Properties (Atomic Units)

 -----------------------------------------------------------------
    Center     Electric         -------- Electric Field --------
               Potential          X             Y             Z
 -----------------------------------------------------------------
    1 Atom    -14.624983     -0.005729      0.012900      0.000000
    2 Atom    -14.624998     -0.014048      0.001481      0.000000
    3 Atom    -14.624989     -0.008311     -0.011411      0.000000
    4 Atom    -14.624983      0.005729     -0.012900      0.000000
    5 Atom    -14.624998      0.014048     -0.001482      0.000000
    6 Atom    -14.624989      0.008311      0.011411      0.000000
    7 Atom    -26.537857     -0.028595     -0.039272      0.000000
    8 Atom    -26.537860     -0.048301      0.005121      0.000000
    9 Atom    -26.537866     -0.019728      0.044379      0.000000
   10 Atom    -26.537857      0.028595      0.039272      0.000000
   11 Atom    -26.537860      0.048301     -0.005121      0.000000
   12 Atom    -26.537866      0.019728     -0.044379      0.000000
 -----------------------------------------------------------------
 -----------------------------------------------------
    Center         ---- Electric Field Gradient ----
                     XX            YY            ZZ
 -----------------------------------------------------
    1 Atom     -500.419032   -500.918842   -500.517859
    2 Atom     -501.033519   -500.304313   -500.518008
    3 Atom     -500.554389   -500.783392   -500.517875
    4 Atom     -500.419032   -500.918842   -500.517859
    5 Atom     -501.033519   -500.304313   -500.518008
    6 Atom     -500.554388   -500.783392   -500.517875
    7 Atom    -1786.596155  -1788.077944  -1785.288385
    8 Atom    -1789.697532  -1784.975570  -1785.288085
    9 Atom    -1785.719295  -1788.954701  -1785.288280
   10 Atom    -1786.596152  -1788.077946  -1785.288385
   11 Atom    -1789.697531  -1784.975571  -1785.288085
   12 Atom    -1785.719297  -1788.954699  -1785.288280
 -----------------------------------------------------
 -----------------------------------------------------
    Center         ---- Electric Field Gradient ----
                     XY            XZ            YZ
 -----------------------------------------------------
    1 Atom        0.276723      0.000000      0.000000
    2 Atom        0.078112      0.000000      0.000000
    3 Atom       -0.354848      0.000000      0.000000
    4 Atom        0.276724      0.000000      0.000000
    5 Atom        0.078112      0.000000      0.000000
    6 Atom       -0.354848      0.000000      0.000000
    7 Atom       -2.298041      0.000000     -0.000001
    8 Atom        0.505823      0.000003      0.000000
    9 Atom        1.792544      0.000000      0.000001
   10 Atom       -2.298040      0.000001      0.000001
   11 Atom        0.505826     -0.000004      0.000000
   12 Atom        1.792545      0.000000     -0.000001
 -----------------------------------------------------
 -----------------------------------------------------
    Center         ---- Electric Field Gradient ----
                   ----       Eigenvalues       ----
 -----------------------------------------------------
    1 Atom     -501.041802   -500.517859   -500.296072
    2 Atom     -501.041792   -500.518008   -500.296040
    3 Atom     -501.041754   -500.517875   -500.296026
    4 Atom     -501.041802   -500.517859   -500.296072
    5 Atom     -501.041792   -500.518008   -500.296040
    6 Atom     -501.041754   -500.517875   -500.296026
    7 Atom    -1789.751572  -1785.288385  -1784.922527
    8 Atom    -1789.751108  -1785.288085  -1784.921994
    9 Atom    -1789.751574  -1785.288280  -1784.922423
   10 Atom    -1789.751572  -1785.288385  -1784.922527
   11 Atom    -1789.751108  -1785.288085  -1784.921994
   12 Atom    -1789.751574  -1785.288280  -1784.922423
 -----------------------------------------------------
 -----------------------------------------------------
    Center         ---- Electric Field Gradient ----
                       ( tensor representation )
                   3XX-RR        3YY-RR        3ZZ-RR
 -----------------------------------------------------
    1 Atom        0.199545     -0.300264      0.100719
    2 Atom       -0.414906      0.314300      0.100606
    3 Atom        0.064163     -0.164840      0.100677
    4 Atom        0.199545     -0.300264      0.100719
    5 Atom       -0.414906      0.314300      0.100606
    6 Atom        0.064163     -0.164840      0.100677
    7 Atom        0.058007     -1.423783      1.365776
    8 Atom       -3.043803      1.678159      1.365644
    9 Atom        0.934797     -2.300609      1.365812
   10 Atom        0.058009     -1.423785      1.365776
   11 Atom       -3.043802      1.678158      1.365644
   12 Atom        0.934795     -2.300607      1.365812
 -----------------------------------------------------
 -----------------------------------------------------
    Center         ---- Electric Field Gradient ----
                       ( tensor representation )
                   ----       Eigenvalues       ----
 -----------------------------------------------------
    1 Atom       -0.423225      0.100719      0.322506
    2 Atom       -0.423179      0.100606      0.322573
    3 Atom       -0.423202      0.100677      0.322526
    4 Atom       -0.423225      0.100719      0.322506
    5 Atom       -0.423179      0.100606      0.322573
    6 Atom       -0.423202      0.100677      0.322526
    7 Atom       -3.097410      1.365776      1.731634
    8 Atom       -3.097379      1.365644      1.731735
    9 Atom       -3.097482      1.365812      1.731670
   10 Atom       -3.097410      1.365776      1.731634
   11 Atom       -3.097379      1.365644      1.731735
   12 Atom       -3.097482      1.365812      1.731670
 -----------------------------------------------------

 Test job not archived.
 1|1|UNPC-NP-ALMACH|FOpt|RB3LYP|6-311++G(d,p)|C6F6|HERA|03-Aug-2018|0||
 # RB3LYP/6-311++G** Opt Test prop=EFG||C6F6||0,1|C,0.8458447975,1.0670
 204372,-0.2829808522|C,1.3789309192,-0.1739615512,0.0484937073|C,0.533
 1167025,-1.2409608587,0.3315038808|C,-0.8458439582,-1.0670022644,0.283
 0457046|C,-1.3789299379,0.1739792703,-0.0484292044|C,-0.5331155235,1.2
 409789802,-0.3314390498|F,-1.0445556481,2.4308109847,-0.6492514633|F,-
 2.7011301599,0.3408417504,-0.0949107924|F,-1.6571317879,-2.0900089178,
 0.5543869086|F,1.0445563095,-2.4307929109,0.6493169733|F,2.7011312088,
 -0.3408238309,0.0949735499|F,1.6571330779,2.090026911,-0.5543213624||V
 ersion=EM64W-G09RevD.01|State=1-A|HF=-827.8689522|RMSD=6.632e-009|RMSF
 =2.671e-005|Dipole=0.,0.,0.|Quadrupole=-2.3817324,-1.9065797,4.2883121
 ,-0.0029224,-0.0101361,1.7767747|PG=C01 [X(C6F6)]||@


      SCIENCE SANS CONSCIENCE N'EST QUE RUINE DE L'AME.

                                                  -- RABELAIS
 Job cpu time:       0 days  0 hours  2 minutes 18.0 seconds.
 File lengths (MBytes):  RWF=     33 Int=      0 D2E=      0 Chk=      6 Scr=      1
 Normal termination of Gaussian 09 at Fri Aug 03 19:54:55 2018.
