 Entering Link 1 = C:\G09W\l1.exe PID=      6304.
  
 Copyright (c) 1988,1990,1992,1993,1995,1998,2003,2009,2013,
            Gaussian, Inc.  All Rights Reserved.
  
 This is part of the Gaussian(R) 09 program.  It is based on
 the Gaussian(R) 03 system (copyright 2003, Gaussian, Inc.),
 the Gaussian(R) 98 system (copyright 1998, Gaussian, Inc.),
 the Gaussian(R) 94 system (copyright 1995, Gaussian, Inc.),
 the Gaussian 92(TM) system (copyright 1992, Gaussian, Inc.),
 the Gaussian 90(TM) system (copyright 1990, Gaussian, Inc.),
 the Gaussian 88(TM) system (copyright 1988, Gaussian, Inc.),
 the Gaussian 86(TM) system (copyright 1986, Carnegie Mellon
 University), and the Gaussian 82(TM) system (copyright 1983,
 Carnegie Mellon University). Gaussian is a federally registered
 trademark of Gaussian, Inc.
  
 This software contains proprietary and confidential information,
 including trade secrets, belonging to Gaussian, Inc.
  
 This software is provided under written license and may be
 used, copied, transmitted, or stored only in accord with that
 written license.
  
 The following legend is applicable only to US Government
 contracts under FAR:
  
                    RESTRICTED RIGHTS LEGEND
  
 Use, reproduction and disclosure by the US Government is
 subject to restrictions as set forth in subparagraphs (a)
 and (c) of the Commercial Computer Software - Restricted
 Rights clause in FAR 52.227-19.
  
 Gaussian, Inc.
 340 Quinnipiac St., Bldg. 40, Wallingford CT 06492
  
  
 ---------------------------------------------------------------
 Warning -- This program may not be used in any manner that
 competes with the business of Gaussian, Inc. or will provide
 assistance to any competitor of Gaussian, Inc.  The licensee
 of this program is prohibited from giving any competitor of
 Gaussian, Inc. access to this program.  By using this program,
 the user acknowledges that Gaussian, Inc. is engaged in the
 business of creating and licensing software in the field of
 computational chemistry and represents and warrants to the
 licensee that it is not a competitor of Gaussian, Inc. and that
 it will not use this program in any manner prohibited above.
 ---------------------------------------------------------------
  

 Cite this work as:
 Gaussian 09, Revision D.01,
 M. J. Frisch, G. W. Trucks, H. B. Schlegel, G. E. Scuseria, 
 M. A. Robb, J. R. Cheeseman, G. Scalmani, V. Barone, B. Mennucci, 
 G. A. Petersson, H. Nakatsuji, M. Caricato, X. Li, H. P. Hratchian, 
 A. F. Izmaylov, J. Bloino, G. Zheng, J. L. Sonnenberg, M. Hada, 
 M. Ehara, K. Toyota, R. Fukuda, J. Hasegawa, M. Ishida, T. Nakajima, 
 Y. Honda, O. Kitao, H. Nakai, T. Vreven, J. A. Montgomery, Jr., 
 J. E. Peralta, F. Ogliaro, M. Bearpark, J. J. Heyd, E. Brothers, 
 K. N. Kudin, V. N. Staroverov, T. Keith, R. Kobayashi, J. Normand, 
 K. Raghavachari, A. Rendell, J. C. Burant, S. S. Iyengar, J. Tomasi, 
 M. Cossi, N. Rega, J. M. Millam, M. Klene, J. E. Knox, J. B. Cross, 
 V. Bakken, C. Adamo, J. Jaramillo, R. Gomperts, R. E. Stratmann, 
 O. Yazyev, A. J. Austin, R. Cammi, C. Pomelli, J. W. Ochterski, 
 R. L. Martin, K. Morokuma, V. G. Zakrzewski, G. A. Voth, 
 P. Salvador, J. J. Dannenberg, S. Dapprich, A. D. Daniels, 
 O. Farkas, J. B. Foresman, J. V. Ortiz, J. Cioslowski, 
 and D. J. Fox, Gaussian, Inc., Wallingford CT, 2013.
 
 ******************************************
 Gaussian 09:  EM64W-G09RevD.01 13-Apr-2013
                03-Aug-2018 
 ******************************************
 %Chk=Anth_311.chk
 %Mem=64GB
 %NProcShared=20
 Will use up to   20 processors via shared memory.
 -------------------------------------
 # RB3LYP/6-311++G** Opt Test prop=EFG
 -------------------------------------
 1/14=-1,18=20,19=15,26=3,38=1/1,3;
 2/9=110,12=2,17=6,18=5,40=1/2;
 3/5=4,6=6,7=1111,11=2,16=1,25=1,30=1,71=1,74=-5,116=1/1,2,3;
 4//1;
 5/5=2,38=5/2;
 6/7=2,8=2,9=2,10=2,14=1,28=1/1,2;
 7//1,2,3,16;
 1/14=-1,18=20,19=15,26=3/3(2);
 2/9=110/2;
 99//99;
 2/9=110/2;
 3/5=4,6=6,7=1111,11=2,16=1,25=1,30=1,71=1,74=-5,116=1/1,2,3;
 4/5=5,16=3,69=1/1;
 5/5=2,38=5/2;
 7//1,2,3,16;
 1/14=-1,18=20,19=15,26=3/3(-5);
 2/9=110/2;
 6/7=2,8=2,9=2,10=2,14=1,19=2,28=1/1,2;
 99/9=1/99;
 -------
 C5HO2F9
 -------
 Symbolic Z-matrix:
 Charge =  0 Multiplicity = 1
 O                     0.63137  -3.23798   0.61242 
 C                     1.25471  -2.36532   0.04164 
 O                     2.08034  -2.58139  -1.00783 
 C                     1.20043  -0.85946   0.41619 
 C                    -0.02857  -0.17649  -0.14214 
 C                    -0.21053   1.30678   0.12294 
 C                    -1.44081   1.96146  -0.45167 
 F                    -2.52904   1.41067   0.01034 
 F                    -1.47304   1.83329  -1.7492 
 F                    -1.4979    3.23798  -0.17993 
 F                     1.23085  -0.71541   1.7492 
 F                     2.29936  -0.25871  -0.06187 
 F                    -0.01336  -0.38183  -1.44721 
 F                    -1.10098  -0.82074   0.28097 
 F                    -0.19492   1.50188   1.43097 
 F                     0.85767   1.93685  -0.33703 
 H                     2.52904  -1.77586  -1.3095 
 

 GradGradGradGradGradGradGradGradGradGradGradGradGradGradGradGradGradGrad
 Berny optimization.
 Initialization pass.
                           ----------------------------
                           !    Initial Parameters    !
                           ! (Angstroms and Degrees)  !
 --------------------------                            --------------------------
 ! Name  Definition              Value          Derivative Info.                !
 --------------------------------------------------------------------------------
 ! R1    R(1,2)                  1.2149         estimate D2E/DX2                !
 ! R2    R(2,3)                  1.3527         estimate D2E/DX2                !
 ! R3    R(2,4)                  1.5527         estimate D2E/DX2                !
 ! R4    R(3,17)                 0.9702         estimate D2E/DX2                !
 ! R5    R(4,5)                  1.5128         estimate D2E/DX2                !
 ! R6    R(4,11)                 1.3411         estimate D2E/DX2                !
 ! R7    R(4,12)                 1.3406         estimate D2E/DX2                !
 ! R8    R(5,6)                  1.5177         estimate D2E/DX2                !
 ! R9    R(5,13)                 1.3212         estimate D2E/DX2                !
 ! R10   R(5,14)                 1.3207         estimate D2E/DX2                !
 ! R11   R(6,7)                  1.5074         estimate D2E/DX2                !
 ! R12   R(6,15)                 1.3226         estimate D2E/DX2                !
 ! R13   R(6,16)                 1.3227         estimate D2E/DX2                !
 ! R14   R(7,8)                  1.3042         estimate D2E/DX2                !
 ! R15   R(7,9)                  1.3042         estimate D2E/DX2                !
 ! R16   R(7,10)                 1.3064         estimate D2E/DX2                !
 ! A1    A(1,2,3)              124.2604         estimate D2E/DX2                !
 ! A2    A(1,2,4)              124.429          estimate D2E/DX2                !
 ! A3    A(3,2,4)              111.3097         estimate D2E/DX2                !
 ! A4    A(2,3,17)             113.0118         estimate D2E/DX2                !
 ! A5    A(2,4,5)              112.1607         estimate D2E/DX2                !
 ! A6    A(2,4,11)             110.0684         estimate D2E/DX2                !
 ! A7    A(2,4,12)             108.659          estimate D2E/DX2                !
 ! A8    A(5,4,11)             109.6803         estimate D2E/DX2                !
 ! A9    A(5,4,12)             109.393          estimate D2E/DX2                !
 ! A10   A(11,4,12)            106.7221         estimate D2E/DX2                !
 ! A11   A(4,5,6)              118.3036         estimate D2E/DX2                !
 ! A12   A(4,5,13)             106.561          estimate D2E/DX2                !
 ! A13   A(4,5,14)             108.7368         estimate D2E/DX2                !
 ! A14   A(6,5,13)             109.0134         estimate D2E/DX2                !
 ! A15   A(6,5,14)             108.8711         estimate D2E/DX2                !
 ! A16   A(13,5,14)            104.4775         estimate D2E/DX2                !
 ! A17   A(5,6,7)              117.1107         estimate D2E/DX2                !
 ! A18   A(5,6,15)             108.3897         estimate D2E/DX2                !
 ! A19   A(5,6,16)             107.9375         estimate D2E/DX2                !
 ! A20   A(7,6,15)             108.8175         estimate D2E/DX2                !
 ! A21   A(7,6,16)             108.6428         estimate D2E/DX2                !
 ! A22   A(15,6,16)            105.3142         estimate D2E/DX2                !
 ! A23   A(6,7,8)              111.256          estimate D2E/DX2                !
 ! A24   A(6,7,9)              110.8981         estimate D2E/DX2                !
 ! A25   A(6,7,10)             112.38           estimate D2E/DX2                !
 ! A26   A(8,7,9)              106.8758         estimate D2E/DX2                !
 ! A27   A(8,7,10)             107.6079         estimate D2E/DX2                !
 ! A28   A(9,7,10)             107.5709         estimate D2E/DX2                !
 ! D1    D(1,2,3,17)          -177.1198         estimate D2E/DX2                !
 ! D2    D(4,2,3,17)             3.2169         estimate D2E/DX2                !
 ! D3    D(1,2,4,5)            -80.0177         estimate D2E/DX2                !
 ! D4    D(1,2,4,11)            42.3895         estimate D2E/DX2                !
 ! D5    D(1,2,4,12)           158.9208         estimate D2E/DX2                !
 ! D6    D(3,2,4,5)             99.6449         estimate D2E/DX2                !
 ! D7    D(3,2,4,11)          -137.9478         estimate D2E/DX2                !
 ! D8    D(3,2,4,12)           -21.4165         estimate D2E/DX2                !
 ! D9    D(2,4,5,6)           -179.0646         estimate D2E/DX2                !
 ! D10   D(2,4,5,13)           -55.9591         estimate D2E/DX2                !
 ! D11   D(2,4,5,14)            56.1445         estimate D2E/DX2                !
 ! D12   D(11,4,5,6)            58.3081         estimate D2E/DX2                !
 ! D13   D(11,4,5,13)         -178.5864         estimate D2E/DX2                !
 ! D14   D(11,4,5,14)          -66.4828         estimate D2E/DX2                !
 ! D15   D(12,4,5,6)           -58.4269         estimate D2E/DX2                !
 ! D16   D(12,4,5,13)           64.6786         estimate D2E/DX2                !
 ! D17   D(12,4,5,14)          176.7822         estimate D2E/DX2                !
 ! D18   D(4,5,6,7)            179.6984         estimate D2E/DX2                !
 ! D19   D(4,5,6,15)           -56.7921         estimate D2E/DX2                !
 ! D20   D(4,5,6,16)            56.7965         estimate D2E/DX2                !
 ! D21   D(13,5,6,7)            57.8285         estimate D2E/DX2                !
 ! D22   D(13,5,6,15)         -178.6619         estimate D2E/DX2                !
 ! D23   D(13,5,6,16)          -65.0733         estimate D2E/DX2                !
 ! D24   D(14,5,6,7)           -55.5767         estimate D2E/DX2                !
 ! D25   D(14,5,6,15)           67.9329         estimate D2E/DX2                !
 ! D26   D(14,5,6,16)         -178.4785         estimate D2E/DX2                !
 ! D27   D(5,6,7,8)             59.9011         estimate D2E/DX2                !
 ! D28   D(5,6,7,9)            -58.9118         estimate D2E/DX2                !
 ! D29   D(5,6,7,10)          -179.3552         estimate D2E/DX2                !
 ! D30   D(15,6,7,8)           -63.3901         estimate D2E/DX2                !
 ! D31   D(15,6,7,9)           177.797          estimate D2E/DX2                !
 ! D32   D(15,6,7,10)           57.3536         estimate D2E/DX2                !
 ! D33   D(16,6,7,8)          -177.5599         estimate D2E/DX2                !
 ! D34   D(16,6,7,9)            63.6272         estimate D2E/DX2                !
 ! D35   D(16,6,7,10)          -56.8162         estimate D2E/DX2                !
 --------------------------------------------------------------------------------
 Trust Radius=3.00D-01 FncErr=1.00D-07 GrdErr=1.00D-06
 Number of steps in this run=     89 maximum allowed number of steps=    102.
 GradGradGradGradGradGradGradGradGradGradGradGradGradGradGradGradGradGrad

                          Input orientation:                          
 ---------------------------------------------------------------------
 Center     Atomic      Atomic             Coordinates (Angstroms)
 Number     Number       Type             X           Y           Z
 ---------------------------------------------------------------------
      1          8           0        0.631369   -3.237983    0.612423
      2          6           0        1.254710   -2.365320    0.041637
      3          8           0        2.080337   -2.581390   -1.007826
      4          6           0        1.200432   -0.859456    0.416187
      5          6           0       -0.028573   -0.176493   -0.142138
      6          6           0       -0.210530    1.306781    0.122937
      7          6           0       -1.440812    1.961456   -0.451670
      8          9           0       -2.529042    1.410674    0.010342
      9          9           0       -1.473038    1.833287   -1.749203
     10          9           0       -1.497900    3.237983   -0.179928
     11          9           0        1.230854   -0.715411    1.749203
     12          9           0        2.299361   -0.258712   -0.061871
     13          9           0       -0.013359   -0.381831   -1.447212
     14          9           0       -1.100983   -0.820735    0.280971
     15          9           0       -0.194917    1.501879    1.430968
     16          9           0        0.857665    1.936852   -0.337028
     17          1           0        2.529042   -1.775860   -1.309504
 ---------------------------------------------------------------------
                    Distance matrix (angstroms):
                    1          2          3          4          5
     1  O    0.000000
     2  C    1.214863   0.000000
     3  O    2.270645   1.352671   0.000000
     4  C    2.453514   1.552694   2.401479   0.000000
     5  C    3.221429   2.543925   3.313676   1.512818   0.000000
     6  C    4.647932   3.954474   4.652373   2.601806   1.517720
     7  C    5.697402   5.121541   5.774535   3.960668   2.580902
     8  F    5.653381   5.345642   6.182202   4.384880   2.965585
     9  F    5.976921   5.317520   5.715373   4.368892   2.950992
    10  F    6.862925   6.246836   6.881446   4.942201   3.717391
    11  F    2.831081   2.374563   3.435798   1.341121   2.335329
    12  F    3.480363   2.353679   2.517466   1.340551   2.330768
    13  F    3.579857   2.785480   3.068336   2.274570   1.321217
    14  F    2.992322   2.827068   3.857681   2.305709   1.320656
    15  F    4.880477   4.357395   5.272341   2.924497   2.306353
    16  F    5.266079   4.337017   4.728574   2.916189   2.299919
    17  H    3.071281   1.948581   0.970167   2.362839   3.234519
                    6          7          8          9         10
     6  C    0.000000
     7  C    1.507437   0.000000
     8  F    2.323568   1.304247   0.000000
     9  F    2.318630   1.304246   2.095172   0.000000
    10  F    2.340639   1.306378   2.106778   2.106279   0.000000
    11  F    2.968432   4.375758   4.656253   5.103503   5.176579
    12  F    2.963862   4.366919   5.109358   4.631905   5.163333
    13  F    2.314229   2.918856   3.415582   2.669946   4.112533
    14  F    2.311754   2.897039   2.663039   3.362122   4.104042
    15  F    1.322593   2.303864   2.733978   3.443387   2.703111
    16  F    1.322724   2.301466   3.444897   2.727112   2.695609
    17  H    4.365755   5.519343   6.122108   5.407025   6.529229
                   11         12         13         14         15
    11  F    0.000000
    12  F    2.151806   0.000000
    13  F    3.446217   2.698704   0.000000
    14  F    2.757583   3.463488   2.088583   0.000000
    15  F    2.655272   3.398481   3.444597   2.745539   0.000000
    16  F    3.395015   2.640966   2.714311   3.438388   2.103079
    17  H    3.487912   1.977645   2.902772   4.076635   5.066923
                   16         17
    16  F    0.000000
    17  H    4.186101   0.000000
 Stoichiometry    C5HF9O2
 Framework group  C1[X(C5HF9O2)]
 Deg. of freedom    45
 Full point group                 C1      NOp   1
 Largest Abelian subgroup         C1      NOp   1
 Largest concise Abelian subgroup C1      NOp   1
                         Standard orientation:                         
 ---------------------------------------------------------------------
 Center     Atomic      Atomic             Coordinates (Angstroms)
 Number     Number       Type             X           Y           Z
 ---------------------------------------------------------------------
      1          8           0       -3.190004   -1.105027   -0.966192
      2          6           0       -2.765009   -0.425163   -0.053473
      3          8           0       -3.313996   -0.379817    1.181953
      4          6           0       -1.518857    0.495916   -0.151341
      5          6           0       -0.225686   -0.277188   -0.014817
      6          6           0        1.081620    0.491943   -0.068313
      7          6           0        2.353425   -0.304062    0.077481
      8          9           0        2.461687   -1.199137   -0.864952
      9          9           0        2.373230   -0.945489    1.212927
     10          9           0        3.419743    0.449242    0.031424
     11          9           0       -1.527470    1.159506   -1.316751
     12          9           0       -1.590328    1.418650    0.818469
     13          9           0       -0.295456   -0.928160    1.132781
     14          9           0       -0.200360   -1.226937   -0.932133
     15          9           0        1.125581    1.161298   -1.208174
     16          9           0        1.049962    1.415445    0.878122
     17          1           0       -2.870268    0.250304    1.771255
 ---------------------------------------------------------------------
 Rotational constants (GHZ):      1.0881420      0.3763018      0.3652580
 Standard basis: 6-311++G(d,p) (5D, 7F)
 There are   375 symmetry adapted cartesian basis functions of A   symmetry.
 There are   359 symmetry adapted basis functions of A   symmetry.
   359 basis functions,   585 primitive gaussians,   375 cartesian basis functions
    64 alpha electrons       64 beta electrons
       nuclear repulsion energy      1438.2998346969 Hartrees.
 NAtoms=   17 NActive=   17 NUniq=   17 SFac= 1.00D+00 NAtFMM=   60 NAOKFM=F Big=F
 Integral buffers will be    131072 words long.
 Raffenetti 2 integral format.
 Two-electron integral symmetry is turned on.
 One-electron integrals computed using PRISM.
 NBasis=   359 RedAO= T EigKep=  4.35D-06  NBF=   359
 NBsUse=   359 1.00D-06 EigRej= -1.00D+00 NBFU=   359
 ExpMin= 3.60D-02 ExpMax= 1.14D+04 ExpMxC= 1.72D+03 IAcc=3 IRadAn=         5 AccDes= 0.00D+00
 Harris functional with IExCor=  402 and IRadAn=       5 diagonalized for initial guess.
 HarFok:  IExCor=  402 AccDes= 0.00D+00 IRadAn=         5 IDoV= 1 UseB2=F ITyADJ=14
 ICtDFT=  3500011 ScaDFX=  1.000000  1.000000  1.000000  1.000000
 FoFCou: FMM=F IPFlag=           0 FMFlag=      100000 FMFlg1=           0
         NFxFlg=           0 DoJE=T BraDBF=F KetDBF=T FulRan=T
         wScrn=  0.000000 ICntrl=     500 IOpCl=  0 I1Cent=   200000004 NGrid=           0
         NMat0=    1 NMatS0=      1 NMatT0=    0 NMatD0=    1 NMtDS0=    0 NMtDT0=    0
 Petite list used in FoFCou.
 Keep R1 ints in memory in canonical form, NReq=2114933679.
 Requested convergence on RMS density matrix=1.00D-08 within 128 cycles.
 Requested convergence on MAX density matrix=1.00D-06.
 Requested convergence on             energy=1.00D-06.
 No special actions if energy rises.
 SCF Done:  E(RB3LYP) =  -1240.50986384     A.U. after   13 cycles
            NFock= 13  Conv=0.50D-08     -V/T= 2.0020

 **********************************************************************

            Population analysis using the SCF density.

 **********************************************************************

 Orbital symmetries:
       Occupied  (A) (A) (A) (A) (A) (A) (A) (A) (A) (A) (A) (A)
                 (A) (A) (A) (A) (A) (A) (A) (A) (A) (A) (A) (A)
                 (A) (A) (A) (A) (A) (A) (A) (A) (A) (A) (A) (A)
                 (A) (A) (A) (A) (A) (A) (A) (A) (A) (A) (A) (A)
                 (A) (A) (A) (A) (A) (A) (A) (A) (A) (A) (A) (A)
                 (A) (A) (A) (A)
       Virtual   (A) (A) (A) (A) (A) (A) (A) (A) (A) (A) (A) (A)
                 (A) (A) (A) (A) (A) (A) (A) (A) (A) (A) (A) (A)
                 (A) (A) (A) (A) (A) (A) (A) (A) (A) (A) (A) (A)
                 (A) (A) (A) (A) (A) (A) (A) (A) (A) (A) (A) (A)
                 (A) (A) (A) (A) (A) (A) (A) (A) (A) (A) (A) (A)
                 (A) (A) (A) (A) (A) (A) (A) (A) (A) (A) (A) (A)
                 (A) (A) (A) (A) (A) (A) (A) (A) (A) (A) (A) (A)
                 (A) (A) (A) (A) (A) (A) (A) (A) (A) (A) (A) (A)
                 (A) (A) (A) (A) (A) (A) (A) (A) (A) (A) (A) (A)
                 (A) (A) (A) (A) (A) (A) (A) (A) (A) (A) (A) (A)
                 (A) (A) (A) (A) (A) (A) (A) (A) (A) (A) (A) (A)
                 (A) (A) (A) (A) (A) (A) (A) (A) (A) (A) (A) (A)
                 (A) (A) (A) (A) (A) (A) (A) (A) (A) (A) (A) (A)
                 (A) (A) (A) (A) (A) (A) (A) (A) (A) (A) (A) (A)
                 (A) (A) (A) (A) (A) (A) (A) (A) (A) (A) (A) (A)
                 (A) (A) (A) (A) (A) (A) (A) (A) (A) (A) (A) (A)
                 (A) (A) (A) (A) (A) (A) (A) (A) (A) (A) (A) (A)
                 (A) (A) (A) (A) (A) (A) (A) (A) (A) (A) (A) (A)
                 (A) (A) (A) (A) (A) (A) (A) (A) (A) (A) (A) (A)
                 (A) (A) (A) (A) (A) (A) (A) (A) (A) (A) (A) (A)
                 (A) (A) (A) (A) (A) (A) (A) (A) (A) (A) (A) (A)
                 (A) (A) (A) (A) (A) (A) (A) (A) (A) (A) (A) (A)
                 (A) (A) (A) (A) (A) (A) (A) (A) (A) (A) (A) (A)
                 (A) (A) (A) (A) (A) (A) (A) (A) (A) (A) (A) (A)
                 (A) (A) (A) (A) (A) (A) (A)
 The electronic state is 1-A.
 Alpha  occ. eigenvalues --  -24.76963 -24.76367 -24.76019 -24.75975 -24.75800
 Alpha  occ. eigenvalues --  -24.75787 -24.75684 -24.75673 -24.75189 -19.22191
 Alpha  occ. eigenvalues --  -19.17108 -10.47683 -10.42316 -10.42282 -10.42157
 Alpha  occ. eigenvalues --  -10.36919  -1.40005  -1.37199  -1.35145  -1.34556
 Alpha  occ. eigenvalues --   -1.29803  -1.29212  -1.28835  -1.27903  -1.27689
 Alpha  occ. eigenvalues --   -1.15376  -1.07730  -0.87819  -0.84265  -0.77626
 Alpha  occ. eigenvalues --   -0.72445  -0.69322  -0.68358  -0.67530  -0.66823
 Alpha  occ. eigenvalues --   -0.65844  -0.65202  -0.64972  -0.63882  -0.62556
 Alpha  occ. eigenvalues --   -0.60915  -0.54342  -0.53892  -0.53109  -0.53001
 Alpha  occ. eigenvalues --   -0.52322  -0.52232  -0.51201  -0.50674  -0.49742
 Alpha  occ. eigenvalues --   -0.49198  -0.48909  -0.48355  -0.48120  -0.47378
 Alpha  occ. eigenvalues --   -0.46929  -0.46882  -0.46341  -0.45701  -0.45161
 Alpha  occ. eigenvalues --   -0.43112  -0.39613  -0.37323  -0.33384
 Alpha virt. eigenvalues --   -0.08089  -0.02714  -0.00661   0.00622   0.01742
 Alpha virt. eigenvalues --    0.03365   0.03771   0.04409   0.05135   0.05868
 Alpha virt. eigenvalues --    0.06698   0.07124   0.07617   0.08322   0.08761
 Alpha virt. eigenvalues --    0.09327   0.09428   0.10336   0.11242   0.11832
 Alpha virt. eigenvalues --    0.12786   0.13424   0.14272   0.15053   0.16358
 Alpha virt. eigenvalues --    0.18120   0.18290   0.19379   0.19453   0.20018
 Alpha virt. eigenvalues --    0.20933   0.21505   0.22298   0.22668   0.22776
 Alpha virt. eigenvalues --    0.23004   0.23517   0.23935   0.24203   0.24333
 Alpha virt. eigenvalues --    0.24889   0.25184   0.26451   0.27564   0.27678
 Alpha virt. eigenvalues --    0.28372   0.28992   0.29263   0.29704   0.30205
 Alpha virt. eigenvalues --    0.30303   0.30957   0.31775   0.32421   0.32853
 Alpha virt. eigenvalues --    0.33901   0.33981   0.34692   0.35125   0.35800
 Alpha virt. eigenvalues --    0.36092   0.36984   0.37357   0.37553   0.37887
 Alpha virt. eigenvalues --    0.38131   0.39843   0.40283   0.40569   0.41914
 Alpha virt. eigenvalues --    0.42967   0.43563   0.44620   0.45061   0.45941
 Alpha virt. eigenvalues --    0.47391   0.48594   0.49717   0.49960   0.52498
 Alpha virt. eigenvalues --    0.54011   0.57079   0.58056   0.58483   0.58861
 Alpha virt. eigenvalues --    0.62223   0.63314   0.65405   0.66566   0.67054
 Alpha virt. eigenvalues --    0.67837   0.69609   0.71196   0.73246   0.74307
 Alpha virt. eigenvalues --    0.77634   0.80848   0.82514   0.87870   0.92962
 Alpha virt. eigenvalues --    0.95630   1.01586   1.02570   1.06096   1.06621
 Alpha virt. eigenvalues --    1.09582   1.11879   1.13206   1.15200   1.16535
 Alpha virt. eigenvalues --    1.18028   1.19634   1.25433   1.26484   1.27086
 Alpha virt. eigenvalues --    1.28816   1.33860   1.34291   1.34893   1.35693
 Alpha virt. eigenvalues --    1.36666   1.37801   1.38189   1.39453   1.39933
 Alpha virt. eigenvalues --    1.40250   1.40734   1.42314   1.42676   1.43393
 Alpha virt. eigenvalues --    1.43858   1.44587   1.44719   1.45734   1.46088
 Alpha virt. eigenvalues --    1.47166   1.47713   1.48808   1.49404   1.50753
 Alpha virt. eigenvalues --    1.52954   1.54314   1.55177   1.56594   1.57306
 Alpha virt. eigenvalues --    1.57822   1.60784   1.61811   1.65470   1.66298
 Alpha virt. eigenvalues --    1.68653   1.71827   1.72759   1.76965   1.79628
 Alpha virt. eigenvalues --    1.80125   1.85140   1.87698   1.89644   1.92637
 Alpha virt. eigenvalues --    1.94058   1.94927   1.98200   1.98666   1.99350
 Alpha virt. eigenvalues --    2.02790   2.05677   2.07491   2.13262   2.14260
 Alpha virt. eigenvalues --    2.18030   2.20567   2.23726   2.29518   2.36176
 Alpha virt. eigenvalues --    2.56779   2.62108   2.78599   2.81965   2.85803
 Alpha virt. eigenvalues --    2.86110   2.89653   2.90892   2.91894   2.94008
 Alpha virt. eigenvalues --    2.95395   2.99670   3.01336   3.03198   3.08057
 Alpha virt. eigenvalues --    3.14138   3.21851   3.23650   3.31603   3.38537
 Alpha virt. eigenvalues --    3.44286   3.49146   3.55056   3.66395   3.69671
 Alpha virt. eigenvalues --    3.70020   3.70339   3.70748   3.71029   3.71283
 Alpha virt. eigenvalues --    3.71431   3.72270   3.73249   3.74155   3.74224
 Alpha virt. eigenvalues --    3.75833   3.76795   3.77068   3.77375   3.77593
 Alpha virt. eigenvalues --    3.79270   3.80236   3.81633   3.83220   3.84820
 Alpha virt. eigenvalues --    3.86347   3.87023   3.91702   3.91977   3.96263
 Alpha virt. eigenvalues --    4.00687   4.07458   4.08702   4.10139   4.14535
 Alpha virt. eigenvalues --    4.15218   4.15635   4.19190   4.20541   4.24464
 Alpha virt. eigenvalues --    4.25612   4.31023   4.56150   4.75853   4.81936
 Alpha virt. eigenvalues --    4.84948   4.89351   4.91176   4.93652   4.94312
 Alpha virt. eigenvalues --    4.96269   4.97749   5.02969   5.10317   5.30063
 Alpha virt. eigenvalues --    5.51564   5.82374   6.25419   6.26674   6.29506
 Alpha virt. eigenvalues --    6.29873   6.31476   6.32079   6.32580   6.34015
 Alpha virt. eigenvalues --    6.35167   6.35863   6.36401   6.37895   6.39824
 Alpha virt. eigenvalues --    6.40576   6.40974   6.44209   6.47586   6.47993
 Alpha virt. eigenvalues --    6.49519   6.50941   6.58093   6.65410   6.67503
 Alpha virt. eigenvalues --    6.70695   6.79665   6.81276   6.89489  23.46367
 Alpha virt. eigenvalues --   23.57869  23.62028  23.62446  23.75176  49.83312
 Alpha virt. eigenvalues --   49.96367  66.71145  66.71632  66.72488  66.74627
 Alpha virt. eigenvalues --   66.76675  66.77064  66.78540  66.81406  66.82736
          Condensed to atoms (all electrons):
               1          2          3          4          5          6
     1  O    7.934832   0.425908  -0.111041  -0.117591   0.007861   0.014782
     2  C    0.425908   7.670922   0.260715  -1.495550   0.390756  -0.919797
     3  O   -0.111041   0.260715   7.863533  -0.097463  -0.121133   0.023740
     4  C   -0.117591  -1.495550  -0.097463  11.587567  -5.139817   2.283653
     5  C    0.007861   0.390756  -0.121133  -5.139817  15.328544  -5.980598
     6  C    0.014782  -0.919797   0.023740   2.283653  -5.980598  13.284112
     7  C    0.006248  -0.199696   0.001659  -1.137443   1.049203  -2.452363
     8  F   -0.000084   0.007854   0.000052   0.006208   0.005796  -0.108549
     9  F    0.000043   0.002313  -0.000027  -0.007066   0.034940  -0.158477
    10  F   -0.000002   0.001914  -0.000011   0.012289   0.139820  -0.246443
    11  F    0.000772  -0.127395   0.005395   0.362359  -0.116696  -0.047922
    12  F    0.013568  -0.145547   0.008760   0.310117  -0.154047  -0.008822
    13  F   -0.009759  -0.026995   0.029198  -0.256849   0.571169  -0.307627
    14  F    0.024840  -0.033856  -0.000765  -0.248796   0.577502  -0.236119
    15  F   -0.000071   0.002708  -0.000330  -0.035168  -0.152333   0.422111
    16  F   -0.000207   0.004367   0.000381   0.060626  -0.265604   0.485878
    17  H    0.011813   0.004844   0.226129  -0.041848   0.040263  -0.005949
               7          8          9         10         11         12
     1  O    0.006248  -0.000084   0.000043  -0.000002   0.000772   0.013568
     2  C   -0.199696   0.007854   0.002313   0.001914  -0.127395  -0.145547
     3  O    0.001659   0.000052  -0.000027  -0.000011   0.005395   0.008760
     4  C   -1.137443   0.006208  -0.007066   0.012289   0.362359   0.310117
     5  C    1.049203   0.005796   0.034940   0.139820  -0.116696  -0.154047
     6  C   -2.452363  -0.108549  -0.158477  -0.246443  -0.047922  -0.008822
     7  C    7.579863   0.255612   0.289916   0.233359   0.008345   0.007924
     8  F    0.255612   8.953390  -0.019585  -0.041493   0.000169  -0.000208
     9  F    0.289916  -0.019585   8.964103  -0.039866  -0.000110  -0.000057
    10  F    0.233359  -0.041493  -0.039866   9.010232  -0.000006   0.000042
    11  F    0.008345   0.000169  -0.000110  -0.000006   8.968078  -0.047956
    12  F    0.007924  -0.000208  -0.000057   0.000042  -0.047956   9.043068
    13  F    0.036386  -0.006054   0.015168  -0.001677   0.018485   0.006370
    14  F    0.004300   0.015870  -0.008049  -0.001279  -0.001979   0.014067
    15  F   -0.160090   0.002587   0.012088   0.011333   0.021216  -0.004302
    16  F   -0.212121   0.011594   0.002076   0.011613  -0.008801   0.015729
    17  H    0.003121  -0.000016   0.000127  -0.000052   0.002624   0.012586
              13         14         15         16         17
     1  O   -0.009759   0.024840  -0.000071  -0.000207   0.011813
     2  C   -0.026995  -0.033856   0.002708   0.004367   0.004844
     3  O    0.029198  -0.000765  -0.000330   0.000381   0.226129
     4  C   -0.256849  -0.248796  -0.035168   0.060626  -0.041848
     5  C    0.571169   0.577502  -0.152333  -0.265604   0.040263
     6  C   -0.307627  -0.236119   0.422111   0.485878  -0.005949
     7  C    0.036386   0.004300  -0.160090  -0.212121   0.003121
     8  F   -0.006054   0.015870   0.002587   0.011594  -0.000016
     9  F    0.015168  -0.008049   0.012088   0.002076   0.000127
    10  F   -0.001677  -0.001279   0.011333   0.011613  -0.000052
    11  F    0.018485  -0.001979   0.021216  -0.008801   0.002624
    12  F    0.006370   0.014067  -0.004302   0.015729   0.012586
    13  F    8.988746  -0.022061   0.008783   0.003631   0.002459
    14  F   -0.022061   8.922243   0.004445   0.010544  -0.000208
    15  F    0.008783   0.004445   8.943810  -0.025518   0.000270
    16  F    0.003631   0.010544  -0.025518   8.962518  -0.001308
    17  H    0.002459  -0.000208   0.000270  -0.001308   0.468951
 Mulliken charges:
               1
     1  O   -0.201912
     2  C    0.176535
     3  O   -0.088793
     4  C   -0.045229
     5  C   -0.215626
     6  C   -0.041610
     7  C    0.685779
     8  F   -0.083145
     9  F   -0.087537
    10  F   -0.089773
    11  F   -0.036578
    12  F   -0.071291
    13  F   -0.049374
    14  F   -0.020699
    15  F   -0.051541
    16  F   -0.055398
    17  H    0.276194
 Sum of Mulliken charges =   0.00000
 Mulliken charges with hydrogens summed into heavy atoms:
               1
     1  O   -0.201912
     2  C    0.176535
     3  O    0.187400
     4  C   -0.045229
     5  C   -0.215626
     6  C   -0.041610
     7  C    0.685779
     8  F   -0.083145
     9  F   -0.087537
    10  F   -0.089773
    11  F   -0.036578
    12  F   -0.071291
    13  F   -0.049374
    14  F   -0.020699
    15  F   -0.051541
    16  F   -0.055398
 Electronic spatial extent (au):  <R**2>=           2977.8645
 Charge=              0.0000 electrons
 Dipole moment (field-independent basis, Debye):
    X=              0.8021    Y=              1.5664    Z=              2.2319  Tot=              2.8423
 Quadrupole moment (field-independent basis, Debye-Ang):
   XX=            -92.8463   YY=            -89.2191   ZZ=            -86.1084
   XY=             -6.5154   XZ=             -6.1750   YZ=              0.0186
 Traceless Quadrupole moment (field-independent basis, Debye-Ang):
   XX=             -3.4550   YY=              0.1722   ZZ=              3.2828
   XY=             -6.5154   XZ=             -6.1750   YZ=              0.0186
 Octapole moment (field-independent basis, Debye-Ang**2):
  XXX=             55.8303  YYY=              4.2962  ZZZ=             10.7643  XYY=             13.6201
  XXY=             24.8033  XXZ=             14.9281  XZZ=              5.6273  YZZ=              5.9232
  YYZ=              1.9464  XYZ=             -0.0043
 Hexadecapole moment (field-independent basis, Debye-Ang**3):
 XXXX=          -2430.6870 YYYY=           -485.9934 ZZZZ=           -403.9217 XXXY=           -108.6032
 XXXZ=            -31.6442 YYYX=            -21.1728 YYYZ=             -4.5353 ZZZX=            -29.8694
 ZZZY=              4.3780 XXYY=           -481.2766 XXZZ=           -450.7498 YYZZ=           -156.8991
 XXYZ=             -1.0688 YYXZ=             -5.1956 ZZXY=            -18.0105
 N-N= 1.438299834697D+03 E-N=-5.818506641247D+03  KE= 1.238012816827D+03

 **********************************************************************

            Electrostatic Properties Using The SCF Density

 **********************************************************************

       Atomic Center    1 is at  -3.190004 -1.105027 -0.966192
       Atomic Center    2 is at  -2.765009 -0.425163 -0.053473
       Atomic Center    3 is at  -3.313996 -0.379817  1.181953
       Atomic Center    4 is at  -1.518857  0.495916 -0.151341
       Atomic Center    5 is at  -0.225686 -0.277188 -0.014817
       Atomic Center    6 is at   1.081620  0.491943 -0.068313
       Atomic Center    7 is at   2.353425 -0.304062  0.077481
       Atomic Center    8 is at   2.461687 -1.199137 -0.864952
       Atomic Center    9 is at   2.373230 -0.945489  1.212927
       Atomic Center   10 is at   3.419743  0.449242  0.031424
       Atomic Center   11 is at  -1.527470  1.159506 -1.316751
       Atomic Center   12 is at  -1.590328  1.418650  0.818469
       Atomic Center   13 is at  -0.295456 -0.928160  1.132781
       Atomic Center   14 is at  -0.200360 -1.226937 -0.932133
       Atomic Center   15 is at   1.125581  1.161298 -1.208174
       Atomic Center   16 is at   1.049962  1.415445  0.878122
       Atomic Center   17 is at  -2.870268  0.250304  1.771255
 -----------------------------------------------------------------

              Electrostatic Properties (Atomic Units)

 -----------------------------------------------------------------
    Center     Electric         -------- Electric Field --------
               Potential          X             Y             Z
 -----------------------------------------------------------------
    1 Atom    -22.330600     -0.017709     -0.027453     -0.036770
    2 Atom    -14.580713      0.004545      0.002369     -0.005130
    3 Atom    -22.274206     -0.038846     -0.026858      0.013065
    4 Atom    -14.524756     -0.002880     -0.019688     -0.002017
    5 Atom    -14.524362      0.001092      0.018892     -0.004006
    6 Atom    -14.524421     -0.001771     -0.017243      0.001688
    7 Atom    -14.466609     -0.014690      0.008320     -0.001919
    8 Atom    -26.526748      0.006068     -0.035365     -0.036983
    9 Atom    -26.525565      0.002730     -0.025494      0.044638
   10 Atom    -26.523393      0.042361      0.028310     -0.001712
   11 Atom    -26.531483     -0.001592      0.023360     -0.041316
   12 Atom    -26.513361     -0.001087      0.035331      0.031041
   13 Atom    -26.519345     -0.001713     -0.026210      0.043441
   14 Atom    -26.526493      0.000320     -0.036993     -0.035158
   15 Atom    -26.525245      0.002258      0.026375     -0.043095
   16 Atom    -26.523393     -0.000258      0.036082      0.035269
   17 Atom     -0.908078      0.009452      0.014120      0.012665
 -----------------------------------------------------------------
 -----------------------------------------------------
    Center         ---- Electric Field Gradient ----
                     XX            YY            ZZ
 -----------------------------------------------------
    1 Atom    -1238.053444  -1239.188417  -1238.454482
    2 Atom     -501.144183   -501.164837   -501.094550
    3 Atom    -1236.301630  -1236.522166  -1238.249386
    4 Atom     -500.383390   -500.883220   -501.249974
    5 Atom     -500.432120   -500.879514   -501.256227
    6 Atom     -500.395860   -500.859795   -501.220451
    7 Atom     -500.384033   -500.612035   -500.768401
    8 Atom    -1785.298845  -1787.398794  -1787.373206
    9 Atom    -1785.235444  -1786.389831  -1788.382110
   10 Atom    -1788.435177  -1786.538106  -1785.300626
   11 Atom    -1785.168098  -1786.659615  -1788.682886
   12 Atom    -1785.058325  -1787.394341  -1787.425176
   13 Atom    -1785.068438  -1786.442575  -1788.221579
   14 Atom    -1785.119982  -1787.831552  -1787.174615
   15 Atom    -1785.104326  -1786.625951  -1788.342409
   16 Atom    -1785.071332  -1787.596957  -1787.270622
   17 Atom       -1.612454     -1.733528     -1.738724
 -----------------------------------------------------
 -----------------------------------------------------
    Center         ---- Electric Field Gradient ----
                     XY            XZ            YZ
 -----------------------------------------------------
    1 Atom        0.746775     -1.101881     -0.377627
    2 Atom        0.257527      0.047266      0.170703
    3 Atom       -0.278272      0.144681     -0.818842
    4 Atom        0.052578      0.008878     -0.080696
    5 Atom       -0.017346      0.034935     -0.040361
    6 Atom       -0.011440      0.029739     -0.050236
    7 Atom       -0.251529      0.046370     -0.028128
    8 Atom        0.352747      0.371270     -2.096692
    9 Atom        0.101905     -0.198554      1.864107
   10 Atom       -1.914783      0.097881      0.069848
   11 Atom        0.061698     -0.010463      1.990726
   12 Atom        0.215145      0.240378     -2.082999
   13 Atom       -0.146895      0.243569      1.925900
   14 Atom        0.067228      0.057816     -2.149420
   15 Atom       -0.072796      0.125751      2.001193
   16 Atom        0.085899      0.078867     -2.158106
   17 Atom       -0.200786     -0.160209     -0.258023
 -----------------------------------------------------
 -----------------------------------------------------
    Center         ---- Electric Field Gradient ----
                   ----       Eigenvalues       ----
 -----------------------------------------------------
    1 Atom    -1239.608526  -1239.239601  -1236.848215
    2 Atom     -501.439281   -501.153435   -500.810854
    3 Atom    -1238.576310  -1236.564903  -1235.931969
    4 Atom     -501.267378   -500.871288   -500.377918
    5 Atom     -501.261810   -500.876219   -500.429832
    6 Atom     -501.228255   -500.853442   -500.394410
    7 Atom     -500.775454   -500.772464   -500.216551
    8 Atom    -1789.544456  -1785.293056  -1785.233334
    9 Atom    -1789.511141  -1785.276482  -1785.219761
   10 Atom    -1789.626816  -1785.350910  -1785.296182
   11 Atom    -1789.904633  -1785.446198  -1785.159768
   12 Atom    -1789.516099  -1785.327644  -1785.034099
   13 Atom    -1789.471830  -1785.211033  -1785.049729
   14 Atom    -1789.679180  -1785.328711  -1785.118257
   15 Atom    -1789.666252  -1785.307064  -1785.099371
   16 Atom    -1789.601057  -1785.269526  -1785.068328
   17 Atom       -2.122192     -1.508275     -1.454237
 -----------------------------------------------------
 -----------------------------------------------------
    Center         ---- Electric Field Gradient ----
                       ( tensor representation )
                   3XX-RR        3YY-RR        3ZZ-RR
 -----------------------------------------------------
    1 Atom        0.512004     -0.622969      0.110966
    2 Atom       -0.009659     -0.030314      0.039974
    3 Atom        0.722764      0.502228     -1.224992
    4 Atom        0.455472     -0.044359     -0.411113
    5 Atom        0.423834     -0.023561     -0.400274
    6 Atom        0.429509     -0.034427     -0.395082
    7 Atom        0.204123     -0.023878     -0.180245
    8 Atom        1.391437     -0.708512     -0.682924
    9 Atom        1.433684      0.279297     -1.712982
   10 Atom       -1.677207      0.219863      1.457344
   11 Atom        1.668768      0.177251     -1.846019
   12 Atom        1.567622     -0.768394     -0.799229
   13 Atom        1.509093      0.134956     -1.644049
   14 Atom        1.588734     -1.122836     -0.465899
   15 Atom        1.586569      0.064944     -1.651513
   16 Atom        1.574972     -0.950653     -0.624318
   17 Atom        0.082448     -0.038626     -0.043822
 -----------------------------------------------------
 -----------------------------------------------------
    Center         ---- Electric Field Gradient ----
                       ( tensor representation )
                   ----       Eigenvalues       ----
 -----------------------------------------------------
    1 Atom       -1.043079     -0.674153      1.717232
    2 Atom       -0.304758     -0.018912      0.323670
    3 Atom       -1.551916      0.459491      1.092425
    4 Atom       -0.428517     -0.032426      0.460943
    5 Atom       -0.405857     -0.020265      0.426122
    6 Atom       -0.402886     -0.028073      0.430959
    7 Atom       -0.187298     -0.184308      0.371606
    8 Atom       -2.854174      1.397226      1.456948
    9 Atom       -2.842013      1.392646      1.449367
   10 Atom       -2.868847      1.407059      1.461787
   11 Atom       -3.067766      1.390668      1.677098
   12 Atom       -2.890151      1.298303      1.591848
   13 Atom       -2.894299      1.366498      1.527801
   14 Atom       -2.970464      1.380005      1.590459
   15 Atom       -2.975356      1.383832      1.591524
   16 Atom       -2.954753      1.376778      1.577975
   17 Atom       -0.427290      0.186626      0.240664
 -----------------------------------------------------
 Calling FoFJK, ICntrl=      2127 FMM=F ISym2X=0 I1Cent= 0 IOpClX= 0 NMat=1 NMatS=1 NMatT=0.
 ***** Axes restored to original set *****
 -------------------------------------------------------------------
 Center     Atomic                   Forces (Hartrees/Bohr)
 Number     Number              X              Y              Z
 -------------------------------------------------------------------
      1        8           0.022397452    0.033100453   -0.019279479
      2        6          -0.007441122   -0.030251828    0.001052998
      3        8          -0.007472483   -0.009094232    0.006502488
      4        6           0.002286024   -0.007845503    0.025158495
      5        6          -0.016022788   -0.006929204   -0.005170842
      6        6           0.020629130    0.001693606    0.014424703
      7        6          -0.016069139   -0.000710854   -0.008543933
      8        9          -0.029596979   -0.018898128    0.021391883
      9        9           0.007071163   -0.004190377   -0.041799744
     10        9           0.009674668    0.031248965    0.013347086
     11        9          -0.001789203   -0.004662681    0.010497813
     12        9           0.019488333    0.012180933   -0.011327493
     13        9           0.011249610    0.000208597   -0.045471507
     14        9          -0.025425830   -0.015046191    0.024880427
     15        9          -0.011390280    0.002608494    0.034618090
     16        9           0.024952585    0.018570305   -0.023375091
     17        1          -0.002541140   -0.001982354    0.003094106
 -------------------------------------------------------------------
 Cartesian Forces:  Max     0.045471507 RMS     0.018375829

 GradGradGradGradGradGradGradGradGradGradGradGradGradGradGradGradGradGrad
 Berny optimization.
 FormGI is forming the generalized inverse of G from B-inverse, IUseBI=4.
 Internal  Forces:  Max     0.045006880 RMS     0.015324576
 Search for a local minimum.
 Step number   1 out of a maximum of   89
 All quantities printed in internal units (Hartrees-Bohrs-Radians)
 Mixed Optimization -- RFO/linear search
 Second derivative matrix not updated -- first step.
 ITU=  0
     Eigenvalues ---    0.00230   0.00532   0.00596   0.00668   0.00751
     Eigenvalues ---    0.02318   0.04647   0.04878   0.06248   0.06962
     Eigenvalues ---    0.07034   0.07873   0.08399   0.08694   0.14247
     Eigenvalues ---    0.14291   0.14592   0.16000   0.19905   0.19925
     Eigenvalues ---    0.20156   0.25000   0.25000   0.25000   0.25000
     Eigenvalues ---    0.25000   0.25000   0.25000   0.25000   0.27423
     Eigenvalues ---    0.30587   0.31069   0.31609   0.53343   0.54457
     Eigenvalues ---    0.56954   0.57082   0.61258   0.61290   0.61629
     Eigenvalues ---    0.61768   0.65452   0.66027   0.66028   0.97696
 RFO step:  Lambda=-3.94124059D-02 EMin= 2.30000000D-03
 Linear search not attempted -- first point.
 Iteration  1 RMS(Cart)=  0.06326042 RMS(Int)=  0.00149355
 Iteration  2 RMS(Cart)=  0.00214539 RMS(Int)=  0.00041352
 Iteration  3 RMS(Cart)=  0.00000216 RMS(Int)=  0.00041351
 Iteration  4 RMS(Cart)=  0.00000000 RMS(Int)=  0.00041351
 Variable       Old X    -DE/DX   Delta X   Delta X   Delta X     New X
                                 (Linear)    (Quad)   (Total)
    R1        2.29576  -0.04432   0.00000  -0.04361  -0.04361   2.25215
    R2        2.55618  -0.01179   0.00000  -0.02019  -0.02019   2.53598
    R3        2.93417   0.01025   0.00000   0.03268   0.03268   2.96685
    R4        1.83335  -0.00380   0.00000  -0.00664  -0.00664   1.82671
    R5        2.85881   0.02990   0.00000   0.08540   0.08540   2.94421
    R6        2.53435   0.00989   0.00000   0.01624   0.01624   2.55059
    R7        2.53327   0.02548   0.00000   0.04176   0.04176   2.57504
    R8        2.86808   0.03076   0.00000   0.08909   0.08909   2.95717
    R9        2.49674   0.04501   0.00000   0.06864   0.06864   2.56538
   R10        2.49568   0.03596   0.00000   0.05473   0.05473   2.55040
   R11        2.84864   0.03278   0.00000   0.09222   0.09222   2.94086
   R12        2.49934   0.03448   0.00000   0.05286   0.05286   2.55220
   R13        2.49959   0.03713   0.00000   0.05696   0.05696   2.55654
   R14        2.46467   0.04026   0.00000   0.05754   0.05754   2.52221
   R15        2.46467   0.04182   0.00000   0.05976   0.05976   2.52443
   R16        2.46870   0.03289   0.00000   0.04739   0.04739   2.51609
    A1        2.16875  -0.00841   0.00000  -0.02906  -0.02906   2.13969
    A2        2.17170  -0.01294   0.00000  -0.04469  -0.04470   2.12700
    A3        1.94272   0.02135   0.00000   0.07378   0.07377   2.01649
    A4        1.97243  -0.00427   0.00000  -0.02143  -0.02143   1.95100
    A5        1.95757  -0.00290   0.00000  -0.01650  -0.01660   1.94097
    A6        1.92106  -0.00398   0.00000  -0.02398  -0.02399   1.89707
    A7        1.89646   0.00305   0.00000   0.01340   0.01344   1.90990
    A8        1.91428   0.00362   0.00000   0.01154   0.01121   1.92550
    A9        1.90927  -0.00161   0.00000  -0.00324  -0.00324   1.90603
   A10        1.86265   0.00207   0.00000   0.02074   0.02077   1.88342
   A11        2.06479  -0.00501   0.00000  -0.03746  -0.03827   2.02652
   A12        1.85984   0.00046   0.00000  -0.00194  -0.00234   1.85750
   A13        1.89781  -0.00197   0.00000  -0.01558  -0.01617   1.88164
   A14        1.90264  -0.00080   0.00000  -0.00491  -0.00540   1.89724
   A15        1.90016   0.00111   0.00000  -0.00023  -0.00118   1.89898
   A16        1.82348   0.00789   0.00000   0.07507   0.07515   1.89863
   A17        2.04397  -0.00341   0.00000  -0.02800  -0.02840   2.01557
   A18        1.89176   0.00274   0.00000   0.01171   0.01076   1.90252
   A19        1.88387   0.00337   0.00000   0.01604   0.01521   1.89907
   A20        1.89922  -0.00391   0.00000  -0.02519  -0.02522   1.87400
   A21        1.89617  -0.00418   0.00000  -0.02477  -0.02468   1.87150
   A22        1.83808   0.00660   0.00000   0.06070   0.06024   1.89832
   A23        1.94178  -0.00603   0.00000  -0.01666  -0.01731   1.92447
   A24        1.93554  -0.00545   0.00000  -0.01397  -0.01454   1.92100
   A25        1.96140  -0.01968   0.00000  -0.07716  -0.07855   1.88285
   A26        1.86533   0.01098   0.00000   0.05564   0.05574   1.92108
   A27        1.87811   0.01141   0.00000   0.03041   0.02892   1.90703
   A28        1.87747   0.01120   0.00000   0.03073   0.02941   1.90688
    D1       -3.09132   0.00039   0.00000   0.00680   0.00682  -3.08451
    D2        0.05615   0.00024   0.00000   0.00329   0.00327   0.05942
    D3       -1.39657  -0.00078   0.00000  -0.00296  -0.00313  -1.39970
    D4        0.73984  -0.00099   0.00000  -0.01669  -0.01650   0.72334
    D5        2.77369   0.00103   0.00000   0.00256   0.00255   2.77624
    D6        1.73913  -0.00061   0.00000   0.00062   0.00045   1.73958
    D7       -2.40764  -0.00082   0.00000  -0.01311  -0.01292  -2.42057
    D8       -0.37379   0.00120   0.00000   0.00615   0.00612  -0.36766
    D9       -3.12527  -0.00171   0.00000  -0.01418  -0.01410  -3.13936
   D10       -0.97667  -0.00593   0.00000  -0.04882  -0.04876  -1.02543
   D11        0.97991   0.00247   0.00000   0.02952   0.02922   1.00913
   D12        1.01767   0.00279   0.00000   0.01957   0.01977   1.03743
   D13       -3.11692  -0.00143   0.00000  -0.01507  -0.01489  -3.13181
   D14       -1.16034   0.00697   0.00000   0.06327   0.06308  -1.09726
   D15       -1.01974  -0.00084   0.00000  -0.01023  -0.01011  -1.02985
   D16        1.12885  -0.00507   0.00000  -0.04487  -0.04477   1.08409
   D17        3.08543   0.00333   0.00000   0.03347   0.03321   3.11864
   D18        3.13633   0.00069   0.00000   0.00662   0.00663  -3.14022
   D19       -0.99121  -0.00480   0.00000  -0.03812  -0.03837  -1.02958
   D20        0.99129   0.00595   0.00000   0.04656   0.04690   1.03819
   D21        1.00930   0.00446   0.00000   0.04116   0.04108   1.05037
   D22       -3.11824  -0.00103   0.00000  -0.00359  -0.00392  -3.12216
   D23       -1.13574   0.00973   0.00000   0.08110   0.08134  -1.05440
   D24       -0.97000  -0.00500   0.00000  -0.04470  -0.04470  -1.01469
   D25        1.18565  -0.01050   0.00000  -0.08944  -0.08970   1.09595
   D26       -3.11504   0.00026   0.00000  -0.00476  -0.00443  -3.11947
   D27        1.04547   0.00299   0.00000   0.02361   0.02319   1.06866
   D28       -1.02821  -0.00330   0.00000  -0.02622  -0.02581  -1.05402
   D29       -3.13034  -0.00034   0.00000  -0.00290  -0.00284  -3.13318
   D30       -1.10637   0.00511   0.00000   0.04973   0.04902  -1.05735
   D31        3.10314  -0.00118   0.00000  -0.00010   0.00001   3.10315
   D32        1.00101   0.00178   0.00000   0.02321   0.02298   1.02399
   D33       -3.09900   0.00158   0.00000   0.00435   0.00417  -3.09483
   D34        1.11050  -0.00471   0.00000  -0.04548  -0.04483   1.06567
   D35       -0.99163  -0.00175   0.00000  -0.02217  -0.02186  -1.01349
         Item               Value     Threshold  Converged?
 Maximum Force            0.045007     0.000450     NO 
 RMS     Force            0.015325     0.000300     NO 
 Maximum Displacement     0.264241     0.001800     NO 
 RMS     Displacement     0.062504     0.001200     NO 
 Predicted change in Energy=-2.220700D-02
 GradGradGradGradGradGradGradGradGradGradGradGradGradGradGradGradGradGrad

                          Input orientation:                          
 ---------------------------------------------------------------------
 Center     Atomic      Atomic             Coordinates (Angstroms)
 Number     Number       Type             X           Y           Z
 ---------------------------------------------------------------------
      1          8           0        0.666687   -3.206255    0.631660
      2          6           0        1.294408   -2.384374    0.039349
      3          8           0        2.096764   -2.691792   -0.991496
      4          6           0        1.231295   -0.861855    0.417262
      5          6           0       -0.042935   -0.186965   -0.172872
      6          6           0       -0.219235    1.337556    0.133012
      7          6           0       -1.497600    1.996341   -0.461683
      8          9           0       -2.591293    1.415695    0.036409
      9          9           0       -1.489535    1.892443   -1.793484
     10          9           0       -1.490048    3.283616   -0.121614
     11          9           0        1.241236   -0.749194    1.762228
     12          9           0        2.337741   -0.229005   -0.064503
     13          9           0        0.020967   -0.356485   -1.518268
     14          9           0       -1.118369   -0.852413    0.298384
     15          9           0       -0.258891    1.515961    1.471153
     16          9           0        0.845397    2.008138   -0.364098
     17          1           0        2.568028   -1.915690   -1.323152
 ---------------------------------------------------------------------
                    Distance matrix (angstroms):
                    1          2          3          4          5
     1  O    0.000000
     2  C    1.191786   0.000000
     3  O    2.223607   1.341984   0.000000
     4  C    2.420942   1.569989   2.466233   0.000000
     5  C    3.204208   2.581111   3.394499   1.558011   0.000000
     6  C    4.656149   4.019036   4.781633   2.649952   1.564867
     7  C    5.739908   5.218908   5.931168   4.048296   2.639372
     8  F    5.686051   5.434998   6.317113   4.465922   3.017688
     9  F    6.043784   5.422248   5.875367   4.458303   3.007152
    10  F    6.880214   6.317057   7.023348   4.988088   3.760544
    11  F    2.765038   2.375911   3.476868   1.349713   2.389521
    12  F    3.484405   2.396861   2.642481   1.362651   2.383512
    13  F    3.627718   2.856599   3.168610   2.338070   1.357539
    14  F    2.972889   2.869755   3.922268   2.352689   1.349616
    15  F    4.884748   4.435697   5.414696   2.997557   2.376849
    16  F    5.311626   4.433796   4.903967   2.999384   2.375748
    17  H    3.016943   1.923066   0.966654   2.434433   3.335980
                    6          7          8          9         10
     6  C    0.000000
     7  C    1.556238   0.000000
     8  F    2.375309   1.334695   0.000000
     9  F    2.373382   1.335872   2.188531   0.000000
    10  F    2.338151   1.331458   2.174130   2.174974   0.000000
    11  F    3.023549   4.470455   4.727946   5.203695   5.222292
    12  F    3.005204   4.451939   5.197172   4.705098   5.195549
    13  F    2.377855   2.993026   3.518741   2.723055   4.181404
    14  F    2.373132   2.972696   2.717066   3.471010   4.173881
    15  F    1.350564   2.345425   2.740190   3.509142   2.679041
    16  F    1.352864   2.345058   3.510303   2.740152   2.672067
    17  H    4.524694   5.707491   6.290081   5.584523   6.704063
                   11         12         13         14         15
    11  F    0.000000
    12  F    2.193141   0.000000
    13  F    3.522064   2.738088   0.000000
    14  F    2.778711   3.530584   2.200967   0.000000
    15  F    2.732404   3.485060   3.538504   2.779080   0.000000
    16  F    3.504402   2.705856   2.757396   3.532423   2.197689
    17  H    3.555371   2.117106   2.992777   4.165268   5.251270
                   16         17
    16  F    0.000000
    17  H    4.391318   0.000000
 Stoichiometry    C5HF9O2
 Framework group  C1[X(C5HF9O2)]
 Deg. of freedom    45
 Full point group                 C1      NOp   1
 Largest Abelian subgroup         C1      NOp   1
 Largest concise Abelian subgroup C1      NOp   1
                         Standard orientation:                         
 ---------------------------------------------------------------------
 Center     Atomic      Atomic             Coordinates (Angstroms)
 Number     Number       Type             X           Y           Z
 ---------------------------------------------------------------------
      1          8           0       -3.189790   -1.055372   -0.977085
      2          6           0       -2.811012   -0.409274   -0.050026
      3          8           0       -3.429179   -0.422366    1.141033
      4          6           0       -1.545689    0.515208   -0.145718
      5          6           0       -0.232420   -0.309420    0.004988
      6          6           0        1.103148    0.502649   -0.069906
      7          6           0        2.405744   -0.335514    0.080431
      8          9           0        2.492943   -1.234554   -0.902184
      9          9           0        2.421114   -0.949854    1.266561
     10          9           0        3.440098    0.499469    0.004956
     11          9           0       -1.564853    1.152988   -1.335085
     12          9           0       -1.598056    1.458304    0.836446
     13          9           0       -0.301301   -0.923549    1.213712
     14          9           0       -0.223427   -1.251606   -0.961276
     15          9           0        1.166494    1.136194   -1.260969
     16          9           0        1.106459    1.428687    0.916341
     17          1           0       -3.022117    0.195309    1.763285
 ---------------------------------------------------------------------
 Rotational constants (GHZ):      1.0494387      0.3627000      0.3543530
 Standard basis: 6-311++G(d,p) (5D, 7F)
 There are   375 symmetry adapted cartesian basis functions of A   symmetry.
 There are   359 symmetry adapted basis functions of A   symmetry.
   359 basis functions,   585 primitive gaussians,   375 cartesian basis functions
    64 alpha electrons       64 beta electrons
       nuclear repulsion energy      1412.3753777755 Hartrees.
 NAtoms=   17 NActive=   17 NUniq=   17 SFac= 1.00D+00 NAtFMM=   60 NAOKFM=F Big=F
 Integral buffers will be    131072 words long.
 Raffenetti 2 integral format.
 Two-electron integral symmetry is turned on.
 One-electron integrals computed using PRISM.
 NBasis=   359 RedAO= T EigKep=  5.43D-06  NBF=   359
 NBsUse=   359 1.00D-06 EigRej= -1.00D+00 NBFU=   359
 Initial guess from the checkpoint file:  "Anth_311.chk"
 B after Tr=     0.000000    0.000000    0.000000
         Rot=    0.999998    0.001494    0.000705    0.000937 Ang=   0.22 deg.
 ExpMin= 3.60D-02 ExpMax= 1.14D+04 ExpMxC= 1.72D+03 IAcc=3 IRadAn=         5 AccDes= 0.00D+00
 Harris functional with IExCor=  402 and IRadAn=       5 diagonalized for initial guess.
 HarFok:  IExCor=  402 AccDes= 0.00D+00 IRadAn=         5 IDoV= 1 UseB2=F ITyADJ=14
 ICtDFT=  3500011 ScaDFX=  1.000000  1.000000  1.000000  1.000000
 FoFCou: FMM=F IPFlag=           0 FMFlag=      100000 FMFlg1=           0
         NFxFlg=           0 DoJE=T BraDBF=F KetDBF=T FulRan=T
         wScrn=  0.000000 ICntrl=     500 IOpCl=  0 I1Cent=   200000004 NGrid=           0
         NMat0=    1 NMatS0=      1 NMatT0=    0 NMatD0=    1 NMtDS0=    0 NMtDT0=    0
 Petite list used in FoFCou.
 Keep R1 ints in memory in canonical form, NReq=2114933679.
 Requested convergence on RMS density matrix=1.00D-08 within 128 cycles.
 Requested convergence on MAX density matrix=1.00D-06.
 Requested convergence on             energy=1.00D-06.
 No special actions if energy rises.
 SCF Done:  E(RB3LYP) =  -1240.52857616     A.U. after   11 cycles
            NFock= 11  Conv=0.83D-08     -V/T= 2.0027
 Calling FoFJK, ICntrl=      2127 FMM=F ISym2X=0 I1Cent= 0 IOpClX= 0 NMat=1 NMatS=1 NMatT=0.
 ***** Axes restored to original set *****
 -------------------------------------------------------------------
 Center     Atomic                   Forces (Hartrees/Bohr)
 Number     Number              X              Y              Z
 -------------------------------------------------------------------
      1        8           0.000232496    0.005351476    0.000914282
      2        6           0.000704092   -0.007338776   -0.001921853
      3        8          -0.000970768    0.002928902    0.001553614
      4        6          -0.000589451   -0.004809728    0.007312494
      5        6          -0.001546558   -0.000222679    0.002426143
      6        6           0.004798683   -0.001236889    0.002350282
      7        6           0.004168055   -0.004566443    0.001754623
      8        9          -0.002242667    0.001977930   -0.003055475
      9        9          -0.004151715    0.001237176   -0.000303739
     10        9          -0.002969991    0.003872401   -0.000879557
     11        9          -0.001054953   -0.000463102   -0.003858336
     12        9           0.002514769    0.001837006   -0.002734157
     13        9          -0.000592680   -0.000214261   -0.001565642
     14        9           0.000712605    0.001483551   -0.001268494
     15        9           0.000280158   -0.000750297   -0.000587255
     16        9           0.000014799   -0.000389774    0.000211882
     17        1           0.000693128    0.001303508   -0.000348813
 -------------------------------------------------------------------
 Cartesian Forces:  Max     0.007338776 RMS     0.002664002

 GradGradGradGradGradGradGradGradGradGradGradGradGradGradGradGradGradGrad
 Berny optimization.
 Using GEDIIS/GDIIS optimizer.
 FormGI is forming the generalized inverse of G from B-inverse, IUseBI=4.
 Internal  Forces:  Max     0.006601674 RMS     0.002101950
 Search for a local minimum.
 Step number   2 out of a maximum of   89
 All quantities printed in internal units (Hartrees-Bohrs-Radians)
 Mixed Optimization -- RFO/linear search
 Update second derivatives using D2CorX and points    1    2
 DE= -1.87D-02 DEPred=-2.22D-02 R= 8.43D-01
 TightC=F SS=  1.41D+00  RLast= 3.58D-01 DXNew= 5.0454D-01 1.0726D+00
 Trust test= 8.43D-01 RLast= 3.58D-01 DXMaxT set to 5.05D-01
 ITU=  1  0
 Use linear search instead of GDIIS.
     Eigenvalues ---    0.00230   0.00532   0.00596   0.00668   0.00758
     Eigenvalues ---    0.02318   0.05176   0.05288   0.06490   0.07164
     Eigenvalues ---    0.07641   0.07939   0.09045   0.09373   0.13708
     Eigenvalues ---    0.13778   0.14038   0.16003   0.19490   0.19600
     Eigenvalues ---    0.19712   0.24522   0.25000   0.25000   0.25000
     Eigenvalues ---    0.25000   0.25000   0.25000   0.26732   0.27728
     Eigenvalues ---    0.30768   0.31186   0.31856   0.53359   0.54265
     Eigenvalues ---    0.56363   0.57153   0.61201   0.61311   0.61444
     Eigenvalues ---    0.62303   0.64803   0.66025   0.66284   0.96749
 RFO step:  Lambda=-1.21479251D-03 EMin= 2.30033990D-03
 Quartic linear search produced a step of -0.01510.
 Iteration  1 RMS(Cart)=  0.02053257 RMS(Int)=  0.00018696
 Iteration  2 RMS(Cart)=  0.00023014 RMS(Int)=  0.00004471
 Iteration  3 RMS(Cart)=  0.00000002 RMS(Int)=  0.00004471
 Variable       Old X    -DE/DX   Delta X   Delta X   Delta X     New X
                                 (Linear)    (Quad)   (Total)
    R1        2.25215  -0.00336   0.00066  -0.00551  -0.00485   2.24730
    R2        2.53598  -0.00207   0.00030  -0.00471  -0.00441   2.53157
    R3        2.96685  -0.00219  -0.00049  -0.00623  -0.00673   2.96012
    R4        1.82671   0.00149   0.00010   0.00242   0.00252   1.82924
    R5        2.94421   0.00211  -0.00129   0.01085   0.00956   2.95378
    R6        2.55059  -0.00389  -0.00025  -0.00593  -0.00617   2.54442
    R7        2.57504   0.00387  -0.00063   0.00870   0.00807   2.58311
    R8        2.95717   0.00005  -0.00135   0.00452   0.00318   2.96035
    R9        2.56538   0.00155  -0.00104   0.00582   0.00478   2.57016
   R10        2.55040  -0.00174  -0.00083  -0.00010  -0.00092   2.54948
   R11        2.94086   0.00629  -0.00139   0.02402   0.02263   2.96350
   R12        2.55220  -0.00069  -0.00080   0.00147   0.00067   2.55287
   R13        2.55654  -0.00025  -0.00086   0.00238   0.00152   2.55806
   R14        2.52221  -0.00016  -0.00087   0.00257   0.00170   2.52391
   R15        2.52443   0.00018  -0.00090   0.00319   0.00229   2.52672
   R16        2.51609   0.00350  -0.00072   0.00757   0.00686   2.52295
    A1        2.13969   0.00660   0.00044   0.02446   0.02490   2.16459
    A2        2.12700  -0.00305   0.00067  -0.01414  -0.01346   2.11353
    A3        2.01649  -0.00355  -0.00111  -0.01032  -0.01143   2.00506
    A4        1.95100  -0.00033   0.00032  -0.00308  -0.00275   1.94825
    A5        1.94097   0.00176   0.00025   0.00434   0.00458   1.94556
    A6        1.89707  -0.00008   0.00036   0.00224   0.00260   1.89967
    A7        1.90990  -0.00063  -0.00020  -0.00446  -0.00466   1.90523
    A8        1.92550  -0.00087  -0.00017  -0.00147  -0.00164   1.92385
    A9        1.90603  -0.00140   0.00005  -0.00989  -0.00985   1.89619
   A10        1.88342   0.00121  -0.00031   0.00943   0.00912   1.89254
   A11        2.02652  -0.00093   0.00058  -0.00450  -0.00391   2.02261
   A12        1.85750   0.00056   0.00004   0.00272   0.00275   1.86026
   A13        1.88164   0.00119   0.00024   0.00688   0.00713   1.88877
   A14        1.89724   0.00003   0.00008  -0.00222  -0.00213   1.89511
   A15        1.89898  -0.00034   0.00002  -0.00214  -0.00210   1.89688
   A16        1.89863  -0.00049  -0.00113  -0.00047  -0.00162   1.89701
   A17        2.01557   0.00026   0.00043  -0.00024   0.00020   2.01577
   A18        1.90252  -0.00070  -0.00016  -0.00444  -0.00459   1.89792
   A19        1.89907  -0.00025  -0.00023  -0.00058  -0.00080   1.89827
   A20        1.87400   0.00044   0.00038   0.00120   0.00158   1.87558
   A21        1.87150   0.00020   0.00037   0.00143   0.00180   1.87330
   A22        1.89832   0.00008  -0.00091   0.00301   0.00210   1.90042
   A23        1.92447   0.00520   0.00026   0.01877   0.01888   1.94335
   A24        1.92100   0.00540   0.00022   0.01954   0.01960   1.94060
   A25        1.88285   0.00443   0.00119   0.01502   0.01603   1.89888
   A26        1.92108  -0.00610  -0.00084  -0.02414  -0.02511   1.89597
   A27        1.90703  -0.00437  -0.00044  -0.01407  -0.01467   1.89236
   A28        1.90688  -0.00450  -0.00044  -0.01487  -0.01548   1.89140
    D1       -3.08451   0.00005  -0.00010   0.00415   0.00408  -3.08042
    D2        0.05942   0.00002  -0.00005  -0.00056  -0.00065   0.05877
    D3       -1.39970  -0.00038   0.00005  -0.01306  -0.01300  -1.41270
    D4        0.72334  -0.00039   0.00025  -0.01064  -0.01037   0.71297
    D5        2.77624   0.00065  -0.00004  -0.00053  -0.00056   2.77568
    D6        1.73958  -0.00034  -0.00001  -0.00834  -0.00836   1.73122
    D7       -2.42057  -0.00035   0.00020  -0.00592  -0.00573  -2.42630
    D8       -0.36766   0.00069  -0.00009   0.00419   0.00408  -0.36359
    D9       -3.13936   0.00048   0.00021   0.02338   0.02359  -3.11577
   D10       -1.02543   0.00034   0.00074   0.01970   0.02042  -1.00500
   D11        1.00913   0.00063  -0.00044   0.02391   0.02347   1.03260
   D12        1.03743   0.00000  -0.00030   0.01868   0.01838   1.05581
   D13       -3.13181  -0.00014   0.00022   0.01499   0.01521  -3.11661
   D14       -1.09726   0.00015  -0.00095   0.01920   0.01826  -1.07900
   D15       -1.02985  -0.00011   0.00015   0.01406   0.01421  -1.01564
   D16        1.08409  -0.00025   0.00068   0.01037   0.01104   1.09513
   D17        3.11864   0.00005  -0.00050   0.01458   0.01409   3.13273
   D18       -3.14022  -0.00015  -0.00010   0.00193   0.00183  -3.13839
   D19       -1.02958   0.00007   0.00058  -0.00006   0.00053  -1.02905
   D20        1.03819  -0.00039  -0.00071   0.00068  -0.00004   1.03815
   D21        1.05037  -0.00027  -0.00062   0.00310   0.00248   1.05285
   D22       -3.12216  -0.00006   0.00006   0.00111   0.00118  -3.12099
   D23       -1.05440  -0.00051  -0.00123   0.00185   0.00061  -1.05378
   D24       -1.01469   0.00050   0.00067   0.00614   0.00681  -1.00788
   D25        1.09595   0.00071   0.00135   0.00415   0.00551   1.10146
   D26       -3.11947   0.00026   0.00007   0.00489   0.00495  -3.11452
   D27        1.06866  -0.00046  -0.00035  -0.00226  -0.00262   1.06605
   D28       -1.05402   0.00020   0.00039   0.00277   0.00317  -1.05085
   D29       -3.13318  -0.00009   0.00004   0.00058   0.00062  -3.13256
   D30       -1.05735  -0.00006  -0.00074   0.00274   0.00199  -1.05535
   D31        3.10315   0.00061   0.00000   0.00776   0.00778   3.11093
   D32        1.02399   0.00031  -0.00035   0.00557   0.00523   1.02922
   D33       -3.09483  -0.00047  -0.00006  -0.00209  -0.00217  -3.09700
   D34        1.06567   0.00020   0.00068   0.00293   0.00362   1.06929
   D35       -1.01349  -0.00010   0.00033   0.00074   0.00106  -1.01242
         Item               Value     Threshold  Converged?
 Maximum Force            0.006602     0.000450     NO 
 RMS     Force            0.002102     0.000300     NO 
 Maximum Displacement     0.071235     0.001800     NO 
 RMS     Displacement     0.020559     0.001200     NO 
 Predicted change in Energy=-6.164054D-04
 GradGradGradGradGradGradGradGradGradGradGradGradGradGradGradGradGradGrad

                          Input orientation:                          
 ---------------------------------------------------------------------
 Center     Atomic      Atomic             Coordinates (Angstroms)
 Number     Number       Type             X           Y           Z
 ---------------------------------------------------------------------
      1          8           0        0.683328   -3.214012    0.632013
      2          6           0        1.304697   -2.394018    0.035561
      3          8           0        2.111298   -2.669885   -0.997859
      4          6           0        1.228742   -0.878986    0.426210
      5          6           0       -0.047648   -0.198617   -0.166344
      6          6           0       -0.208443    1.330837    0.131970
      7          6           0       -1.494303    2.003074   -0.462974
      8          9           0       -2.605016    1.448424    0.029466
      9          9           0       -1.520492    1.900711   -1.795874
     10          9           0       -1.490886    3.298621   -0.140478
     11          9           0        1.230855   -0.775406    1.768665
     12          9           0        2.332445   -0.234702   -0.058778
     13          9           0        0.009202   -0.373721   -1.513897
     14          9           0       -1.130737   -0.847791    0.308669
     15          9           0       -0.239048    1.511165    1.470449
     16          9           0        0.861211    1.988021   -0.374351
     17          1           0        2.569411   -1.877994   -1.314161
 ---------------------------------------------------------------------
                    Distance matrix (angstroms):
                    1          2          3          4          5
     1  O    0.000000
     2  C    1.189220   0.000000
     3  O    2.234202   1.339651   0.000000
     4  C    2.406694   1.566428   2.452386   0.000000
     5  C    3.203795   2.586385   3.385207   1.563072   0.000000
     6  C    4.658428   4.021621   4.760619   2.652432   1.566549
     7  C    5.758390   5.236158   5.926466   4.063483   2.651084
     8  F    5.737123   5.481812   6.345037   4.502438   3.048151
     9  F    6.075512   5.457155   5.892120   4.496961   3.038391
    10  F    6.909294   6.344479   7.023809   5.016963   3.783422
    11  F    2.745645   2.372553   3.466683   1.346447   2.389878
    12  F    3.474632   2.393285   2.619330   1.366922   2.382796
    13  F    3.623069   2.856699   3.155546   2.346612   1.360071
    14  F    2.999064   2.897714   3.941806   2.362611   1.349128
    15  F    4.886825   4.437625   5.394243   2.992936   2.374675
    16  F    5.301468   4.423458   4.862877   2.999285   2.377116
    17  H    3.021563   1.920295   0.967990   2.413359   3.314632
                    6          7          8          9         10
     6  C    0.000000
     7  C    1.568214   0.000000
     8  F    2.401645   1.335596   0.000000
     9  F    2.400585   1.337081   2.170858   0.000000
    10  F    2.364542   1.335088   2.166426   2.166880   0.000000
    11  F    3.030942   4.486273   4.762787   5.238077   5.258364
    12  F    2.990554   4.451406   5.217205   4.735253   5.206622
    13  F    2.379446   3.002353   3.540667   2.755452   4.197933
    14  F    2.372397   2.975742   2.743001   3.483572   4.186189
    15  F    1.350919   2.357067   2.770952   3.530257   2.712413
    16  F    1.353666   2.357228   3.531142   2.775042   2.702726
    17  H    4.483790   5.683395   6.296435   5.589094   6.682881
                   11         12         13         14         15
    11  F    0.000000
    12  F    2.201230   0.000000
    13  F    3.525479   2.744841   0.000000
    14  F    2.777399   3.536174   2.201352   0.000000
    15  F    2.734585   3.463982   3.538467   2.776601   0.000000
    16  F    3.516488   2.684142   2.757229   3.532167   2.200284
    17  H    3.537125   2.081477   2.976139   4.169652   5.208445
                   16         17
    16  F    0.000000
    17  H    4.329812   0.000000
 Stoichiometry    C5HF9O2
 Framework group  C1[X(C5HF9O2)]
 Deg. of freedom    45
 Full point group                 C1      NOp   1
 Largest Abelian subgroup         C1      NOp   1
 Largest concise Abelian subgroup C1      NOp   1
                         Standard orientation:                         
 ---------------------------------------------------------------------
 Center     Atomic      Atomic             Coordinates (Angstroms)
 Number     Number       Type             X           Y           Z
 ---------------------------------------------------------------------
      1          8           0       -3.202699   -1.056309   -0.967036
      2          6           0       -2.822112   -0.417363   -0.039056
      3          8           0       -3.413848   -0.415388    1.162822
      4          6           0       -1.560560    0.504025   -0.154070
      5          6           0       -0.237960   -0.315516   -0.004822
      6          6           0        1.090450    0.512409   -0.067620
      7          6           0        2.411807   -0.319413    0.078601
      8          9           0        2.531786   -1.217799   -0.902381
      9          9           0        2.452392   -0.959833    1.251632
     10          9           0        3.453452    0.513491    0.017711
     11          9           0       -1.587513    1.131581   -1.345021
     12          9           0       -1.603200    1.448429    0.833229
     13          9           0       -0.302535   -0.940472    1.201433
     14          9           0       -0.210021   -1.251729   -0.975839
     15          9           0        1.145466    1.155464   -1.254395
     16          9           0        1.079213    1.429794    0.927715
     17          1           0       -2.988726    0.208407    1.768755
 ---------------------------------------------------------------------
 Rotational constants (GHZ):      1.0492524      0.3603871      0.3522606
 Standard basis: 6-311++G(d,p) (5D, 7F)
 There are   375 symmetry adapted cartesian basis functions of A   symmetry.
 There are   359 symmetry adapted basis functions of A   symmetry.
   359 basis functions,   585 primitive gaussians,   375 cartesian basis functions
    64 alpha electrons       64 beta electrons
       nuclear repulsion energy      1409.8366172562 Hartrees.
 NAtoms=   17 NActive=   17 NUniq=   17 SFac= 1.00D+00 NAtFMM=   60 NAOKFM=F Big=F
 Integral buffers will be    131072 words long.
 Raffenetti 2 integral format.
 Two-electron integral symmetry is turned on.
 One-electron integrals computed using PRISM.
 NBasis=   359 RedAO= T EigKep=  5.58D-06  NBF=   359
 NBsUse=   359 1.00D-06 EigRej= -1.00D+00 NBFU=   359
 Initial guess from the checkpoint file:  "Anth_311.chk"
 B after Tr=     0.000000    0.000000    0.000000
         Rot=    0.999996   -0.001489   -0.000704   -0.002347 Ang=  -0.33 deg.
 ExpMin= 3.60D-02 ExpMax= 1.14D+04 ExpMxC= 1.72D+03 IAcc=3 IRadAn=         5 AccDes= 0.00D+00
 Harris functional with IExCor=  402 and IRadAn=       5 diagonalized for initial guess.
 HarFok:  IExCor=  402 AccDes= 0.00D+00 IRadAn=         5 IDoV= 1 UseB2=F ITyADJ=14
 ICtDFT=  3500011 ScaDFX=  1.000000  1.000000  1.000000  1.000000
 FoFCou: FMM=F IPFlag=           0 FMFlag=      100000 FMFlg1=           0
         NFxFlg=           0 DoJE=T BraDBF=F KetDBF=T FulRan=T
         wScrn=  0.000000 ICntrl=     500 IOpCl=  0 I1Cent=   200000004 NGrid=           0
         NMat0=    1 NMatS0=      1 NMatT0=    0 NMatD0=    1 NMtDS0=    0 NMtDT0=    0
 Petite list used in FoFCou.
 Keep R1 ints in memory in canonical form, NReq=2114933679.
 Requested convergence on RMS density matrix=1.00D-08 within 128 cycles.
 Requested convergence on MAX density matrix=1.00D-06.
 Requested convergence on             energy=1.00D-06.
 No special actions if energy rises.
 SCF Done:  E(RB3LYP) =  -1240.52904892     A.U. after   10 cycles
            NFock= 10  Conv=0.47D-08     -V/T= 2.0028
 Calling FoFJK, ICntrl=      2127 FMM=F ISym2X=0 I1Cent= 0 IOpClX= 0 NMat=1 NMatS=1 NMatT=0.
 ***** Axes restored to original set *****
 -------------------------------------------------------------------
 Center     Atomic                   Forces (Hartrees/Bohr)
 Number     Number              X              Y              Z
 -------------------------------------------------------------------
      1        8          -0.000762857   -0.000462987    0.000357148
      2        6           0.002200338   -0.000097519   -0.001720268
      3        8          -0.001050503   -0.000072709    0.000755143
      4        6          -0.002326976   -0.001792752    0.003518574
      5        6          -0.001480604    0.000299899    0.000915371
      6        6           0.001555902    0.000176030    0.000349706
      7        6          -0.002937445   -0.000156316   -0.001691711
      8        9           0.001026837   -0.001100035    0.001022444
      9        9           0.001657180   -0.000921932   -0.000043683
     10        9           0.001676785    0.001070485    0.001257857
     11        9           0.000056926    0.000342175   -0.002825558
     12        9           0.001601156    0.001561608   -0.000407638
     13        9          -0.000316838    0.000035325    0.000351326
     14        9           0.001416450    0.001092117   -0.001006981
     15        9          -0.000192614    0.000142273   -0.001714518
     16        9          -0.002097025   -0.000183217    0.000702786
     17        1          -0.000026711    0.000067554    0.000180002
[...]
 Alpha virt. eigenvalues --    1.17152   1.19001   1.25415   1.26577   1.28390
 Alpha virt. eigenvalues --    1.29496   1.33249   1.33435   1.33950   1.35996
 Alpha virt. eigenvalues --    1.36413   1.37544   1.38097   1.39342   1.39576
 Alpha virt. eigenvalues --    1.40637   1.41266   1.41916   1.42546   1.43090
 Alpha virt. eigenvalues --    1.43332   1.44195   1.45305   1.45739   1.46363
 Alpha virt. eigenvalues --    1.46473   1.47053   1.47957   1.49048   1.49592
 Alpha virt. eigenvalues --    1.50959   1.53248   1.53949   1.54850   1.55842
 Alpha virt. eigenvalues --    1.56795   1.57305   1.58887   1.63446   1.64571
 Alpha virt. eigenvalues --    1.66530   1.71328   1.71647   1.76101   1.77432
 Alpha virt. eigenvalues --    1.79112   1.82559   1.85338   1.86978   1.90204
 Alpha virt. eigenvalues --    1.90559   1.92358   1.94851   1.98073   1.98757
 Alpha virt. eigenvalues --    1.99598   2.02618   2.08310   2.09676   2.13560
 Alpha virt. eigenvalues --    2.14043   2.17138   2.20523   2.24790   2.27220
 Alpha virt. eigenvalues --    2.56271   2.61971   2.76640   2.78658   2.80539
 Alpha virt. eigenvalues --    2.82732   2.85429   2.86786   2.88678   2.89248
 Alpha virt. eigenvalues --    2.91295   2.94865   2.97208   3.00911   3.07225
 Alpha virt. eigenvalues --    3.15166   3.17461   3.25668   3.31537   3.34476
 Alpha virt. eigenvalues --    3.44014   3.48357   3.55143   3.66726   3.69410
 Alpha virt. eigenvalues --    3.70509   3.70648   3.71052   3.71268   3.71488
 Alpha virt. eigenvalues --    3.71810   3.72446   3.72895   3.73503   3.73866
 Alpha virt. eigenvalues --    3.74432   3.75515   3.76078   3.76495   3.77077
 Alpha virt. eigenvalues --    3.78667   3.79276   3.80987   3.81833   3.83947
 Alpha virt. eigenvalues --    3.85063   3.86232   3.87428   3.89017   3.93829
 Alpha virt. eigenvalues --    3.98071   4.00701   4.02876   4.05661   4.07092
 Alpha virt. eigenvalues --    4.09684   4.11332   4.12821   4.13070   4.17706
 Alpha virt. eigenvalues --    4.18437   4.21348   4.48496   4.66540   4.73601
 Alpha virt. eigenvalues --    4.77816   4.88282   4.89643   4.90532   4.91585
 Alpha virt. eigenvalues --    4.93091   4.93979   5.03110   5.11702   5.31736
 Alpha virt. eigenvalues --    5.52714   5.83533   6.26045   6.27709   6.28522
 Alpha virt. eigenvalues --    6.29220   6.29858   6.31147   6.32536   6.33469
 Alpha virt. eigenvalues --    6.34373   6.34549   6.36367   6.37081   6.37547
 Alpha virt. eigenvalues --    6.37998   6.38976   6.42142   6.43292   6.43528
 Alpha virt. eigenvalues --    6.49461   6.50466   6.52535   6.60321   6.65773
 Alpha virt. eigenvalues --    6.68846   6.74167   6.76460   6.82425  23.42010
 Alpha virt. eigenvalues --   23.49755  23.53283  23.54566  23.78847  49.82541
 Alpha virt. eigenvalues --   49.98760  66.70220  66.71074  66.71616  66.72988
 Alpha virt. eigenvalues --   66.75710  66.76579  66.77445  66.77974  66.79348
          Condensed to atoms (all electrons):
               1          2          3          4          5          6
     1  O    7.966028   0.420600  -0.117251  -0.161970   0.031001   0.016260
     2  C    0.420600   6.907769   0.200439  -1.203221   0.382276  -0.621509
     3  O   -0.117251   0.200439   7.895851  -0.077981  -0.096968   0.021891
     4  C   -0.161970  -1.203221  -0.077981  10.416626  -3.838490   1.503002
     5  C    0.031001   0.382276  -0.096968  -3.838490  12.437851  -4.104734
     6  C    0.016260  -0.621509   0.021891   1.503002  -4.104734  10.895904
     7  C    0.002546  -0.042634   0.002333  -0.690882   0.659805  -1.439015
     8  F   -0.000049   0.004554   0.000025  -0.008804  -0.015590  -0.074175
     9  F    0.000022  -0.000498  -0.000001   0.041308  -0.020900  -0.077730
    10  F    0.000000   0.001184  -0.000004   0.003263   0.106499  -0.218115
    11  F   -0.003073  -0.078104   0.000826   0.302775  -0.028222  -0.107716
    12  F    0.016799  -0.174718   0.013142   0.255535  -0.156715   0.036468
    13  F   -0.011416   0.049825   0.013048  -0.219806   0.460573  -0.197694
    14  F    0.019515  -0.068985   0.001962  -0.198846   0.534776  -0.260619
    15  F   -0.000135   0.022964  -0.000444   0.034402  -0.189351   0.379857
    16  F   -0.000191   0.003202  -0.000135  -0.046249  -0.094280   0.356143
    17  H    0.014547   0.035235   0.220041  -0.044863   0.039722  -0.018225
               7          8          9         10         11         12
     1  O    0.002546  -0.000049   0.000022   0.000000  -0.003073   0.016799
     2  C   -0.042634   0.004554  -0.000498   0.001184  -0.078104  -0.174718
     3  O    0.002333   0.000025  -0.000001  -0.000004   0.000826   0.013142
     4  C   -0.690882  -0.008804   0.041308   0.003263   0.302775   0.255535
     5  C    0.659805  -0.015590  -0.020900   0.106499  -0.028222  -0.156715
     6  C   -1.439015  -0.074175  -0.077730  -0.218115  -0.107716   0.036468
     7  C    6.441751   0.260408   0.213303   0.249390   0.003592   0.028831
     8  F    0.260408   8.935713  -0.027902  -0.039617  -0.000106  -0.000242
     9  F    0.213303  -0.027902   8.966298  -0.030230  -0.000195  -0.000283
    10  F    0.249390  -0.039617  -0.030230   9.000323   0.000037  -0.000021
    11  F    0.003592  -0.000106  -0.000195   0.000037   8.940842  -0.049408
    12  F    0.028831  -0.000242  -0.000283  -0.000021  -0.049408   9.074742
    13  F   -0.039702  -0.001588   0.011117  -0.002033   0.011985   0.008752
    14  F    0.076649   0.013227  -0.004262   0.000117   0.007907   0.010111
    15  F   -0.175720   0.010624   0.010249   0.009760   0.015142   0.001122
    16  F   -0.133394   0.009547   0.003431   0.014383  -0.002485   0.011239
    17  H    0.000763   0.000006  -0.000011  -0.000028   0.000234   0.016357
              13         14         15         16         17
     1  O   -0.011416   0.019515  -0.000135  -0.000191   0.014547
     2  C    0.049825  -0.068985   0.022964   0.003202   0.035235
     3  O    0.013048   0.001962  -0.000444  -0.000135   0.220041
     4  C   -0.219806  -0.198846   0.034402  -0.046249  -0.044863
     5  C    0.460573   0.534776  -0.189351  -0.094280   0.039722
     6  C   -0.197694  -0.260619   0.379857   0.356143  -0.018225
     7  C   -0.039702   0.076649  -0.175720  -0.133394   0.000763
     8  F   -0.001588   0.013227   0.010624   0.009547   0.000006
     9  F    0.011117  -0.004262   0.010249   0.003431  -0.000011
    10  F   -0.002033   0.000117   0.009760   0.014383  -0.000028
    11  F    0.011985   0.007907   0.015142  -0.002485   0.000234
    12  F    0.008752   0.010111   0.001122   0.011239   0.016357
    13  F    8.951945  -0.026308   0.007128   0.012244   0.000347
    14  F   -0.026308   8.897766   0.002535   0.007702  -0.000060
    15  F    0.007128   0.002535   8.953315  -0.032212   0.000254
    16  F    0.012244   0.007702  -0.032212   8.930733  -0.000823
    17  H    0.000347  -0.000060   0.000254  -0.000823   0.466701
 Mulliken charges:
               1
     1  O   -0.193234
     2  C    0.161619
     3  O   -0.076774
     4  C   -0.065798
     5  C   -0.107253
     6  C   -0.089995
     7  C    0.581975
     8  F   -0.066031
     9  F   -0.083715
    10  F   -0.094908
    11  F   -0.014031
    12  F   -0.091711
    13  F   -0.028416
    14  F   -0.013186
    15  F   -0.049489
    16  F   -0.038857
    17  H    0.269804
 Sum of Mulliken charges =   0.00000
 Mulliken charges with hydrogens summed into heavy atoms:
               1
     1  O   -0.193234
     2  C    0.161619
     3  O    0.193030
     4  C   -0.065798
     5  C   -0.107253
     6  C   -0.089995
     7  C    0.581975
     8  F   -0.066031
     9  F   -0.083715
    10  F   -0.094908
    11  F   -0.014031
    12  F   -0.091711
    13  F   -0.028416
    14  F   -0.013186
    15  F   -0.049489
    16  F   -0.038857
 Electronic spatial extent (au):  <R**2>=           3069.5239
 Charge=              0.0000 electrons
 Dipole moment (field-independent basis, Debye):
    X=              0.2952    Y=              2.3190    Z=              1.1887  Tot=              2.6226
 Quadrupole moment (field-independent basis, Debye-Ang):
   XX=            -91.1548   YY=            -89.2633   ZZ=            -87.2227
   XY=             -9.1562   XZ=             -2.9086   YZ=              0.9198
 Traceless Quadrupole moment (field-independent basis, Debye-Ang):
   XX=             -1.9412   YY=             -0.0497   ZZ=              1.9909
   XY=             -9.1562   XZ=             -2.9086   YZ=              0.9198
 Octapole moment (field-independent basis, Debye-Ang**2):
  XXX=             47.1272  YYY=              8.9558  ZZZ=              1.5728  XYY=             11.0679
  XXY=             30.0836  XXZ=              3.6413  XZZ=              5.7935  YZZ=              5.3027
  YYZ=              4.0437  XYZ=             -3.6121
 Hexadecapole moment (field-independent basis, Debye-Ang**3):
 XXXX=          -2491.2333 YYYY=           -517.7148 ZZZZ=           -417.2182 XXXY=           -121.0939
 XXXZ=              8.3840 YYYX=            -35.1611 YYYZ=             -1.2403 ZZZX=             -3.1070
 ZZZY=              7.0260 XXYY=           -490.6871 XXZZ=           -463.0310 YYZZ=           -152.7536
 XXYZ=              9.1965 YYXZ=            -13.6245 ZZXY=            -15.0358
 N-N= 1.412809345242D+03 E-N=-5.767237639631D+03  KE= 1.237150526901D+03

 **********************************************************************

            Electrostatic Properties Using The SCF Density

 **********************************************************************

       Atomic Center    1 is at  -3.103990 -1.443092 -0.402535
       Atomic Center    2 is at  -2.815453 -0.402829  0.099730
       Atomic Center    3 is at  -3.520646  0.183844  1.071391
       Atomic Center    4 is at  -1.540709  0.377692 -0.364010
       Atomic Center    5 is at  -0.229748 -0.339532  0.090787
       Atomic Center    6 is at   1.070709  0.528179 -0.018288
       Atomic Center    7 is at   2.406986 -0.282339  0.077949
       Atomic Center    8 is at   2.590321 -1.033345 -1.008823
       Atomic Center    9 is at   2.401796 -1.069518  1.159489
       Atomic Center   10 is at   3.424590  0.578898  0.177895
       Atomic Center   11 is at  -1.561729  0.498872 -1.701407
       Atomic Center   12 is at  -1.548783  1.639522  0.180114
       Atomic Center   13 is at  -0.396975 -0.689974  1.392212
       Atomic Center   14 is at  -0.077783 -1.458574 -0.641733
       Atomic Center   15 is at   1.072973  1.179890 -1.201668
       Atomic Center   16 is at   1.071856  1.437205  0.979096
       Atomic Center   17 is at  -3.140018  1.040183  1.315567
 -----------------------------------------------------------------

              Electrostatic Properties (Atomic Units)

 -----------------------------------------------------------------
    Center     Electric         -------- Electric Field --------
               Potential          X             Y             Z
 -----------------------------------------------------------------
    1 Atom    -22.333661     -0.014055     -0.048244     -0.023053
    2 Atom    -14.584731      0.008828      0.004833     -0.004786
    3 Atom    -22.271572     -0.040849     -0.018085      0.021252
    4 Atom    -14.520628     -0.001885     -0.017607      0.011776
    5 Atom    -14.512910     -0.000173      0.019599     -0.007235
    6 Atom    -14.512939      0.000424     -0.020358      0.002518
    7 Atom    -14.456915     -0.016398      0.009739     -0.001301
    8 Atom    -26.523746      0.008026     -0.026419     -0.037527
    9 Atom    -26.522495      0.001710     -0.027590      0.037183
   10 Atom    -26.524501      0.036360      0.028698      0.003597
   11 Atom    -26.526986     -0.001517      0.004136     -0.046193
   12 Atom    -26.517475      0.001516      0.040639      0.013541
   13 Atom    -26.520824     -0.004537     -0.013307      0.042734
   14 Atom    -26.523066      0.004055     -0.039386     -0.024407
   15 Atom    -26.522303      0.000537      0.023426     -0.039589
   16 Atom    -26.523139      0.000612      0.031868      0.032941
   17 Atom     -0.907535      0.008168      0.022426      0.007867
 -----------------------------------------------------------------
 -----------------------------------------------------
    Center         ---- Electric Field Gradient ----
                     XX            YY            ZZ
 -----------------------------------------------------
    1 Atom    -1237.587937  -1238.988401  -1238.379772
    2 Atom     -501.192179   -500.989630   -501.291664
    3 Atom    -1236.492885  -1237.702338  -1237.094460
    4 Atom     -500.420964   -501.071492   -501.150954
    5 Atom     -500.436798   -500.885839   -501.166519
    6 Atom     -500.398384   -500.843764   -501.192529
    7 Atom     -500.382359   -500.648657   -500.785767
    8 Atom    -1785.572387  -1786.933009  -1788.394061
    9 Atom    -1785.481567  -1787.074601  -1788.366575
   10 Atom    -1788.198943  -1787.249938  -1785.536403
   11 Atom    -1785.245035  -1785.566633  -1789.949836
   12 Atom    -1785.257403  -1789.086365  -1786.092333
   13 Atom    -1785.370620  -1785.812727  -1789.473671
   14 Atom    -1785.365180  -1788.719951  -1786.798738
   15 Atom    -1785.291296  -1786.632573  -1788.837934
   16 Atom    -1785.262570  -1787.613948  -1787.847638
   17 Atom       -1.586323     -1.993009     -1.532844
 -----------------------------------------------------
 -----------------------------------------------------
    Center         ---- Electric Field Gradient ----
                     XY            XZ            YZ
 -----------------------------------------------------
    1 Atom        0.255353     -1.241920      0.085896
    2 Atom        0.215474     -0.077870      0.153140
    3 Atom       -0.004423      0.450259     -1.115861
    4 Atom        0.033141     -0.043799     -0.195977
    5 Atom        0.026300      0.118312     -0.105255
    6 Atom       -0.003385     -0.003588     -0.041881
    7 Atom       -0.237306      0.030128     -0.013672
    8 Atom        0.401422      0.576882     -2.034716
    9 Atom        0.024643     -0.061918      2.104720
   10 Atom       -2.154597     -0.270128     -0.188873
   11 Atom        0.066169     -0.097839      0.477333
   12 Atom        0.088637      0.071942     -1.515226
   13 Atom       -0.136154      0.593271      1.161984
   14 Atom        0.441743      0.294270     -1.966783
   15 Atom       -0.006992      0.016902      1.931227
   16 Atom       -0.006711     -0.021110     -2.228106
   17 Atom       -0.221948     -0.042823     -0.165246
 -----------------------------------------------------
 -----------------------------------------------------
    Center         ---- Electric Field Gradient ----
                   ----       Eigenvalues       ----
 -----------------------------------------------------
    1 Atom    -1239.405838  -1238.880431  -1236.669842
    2 Atom     -501.464931   -501.174270   -500.834271
    3 Atom    -1238.590567  -1236.723129  -1235.975986
    4 Atom     -501.311376   -500.916999   -500.415035
    5 Atom     -501.220167   -500.851094   -500.417894
    6 Atom     -501.197507   -500.838825   -500.398345
    7 Atom     -500.791107   -500.784266   -500.241410
    8 Atom    -1789.938543  -1785.501947  -1785.458968
    9 Atom    -1789.923146  -1785.525407  -1785.474189
   10 Atom    -1789.955146  -1785.537243  -1785.492895
   11 Atom    -1790.003504  -1785.526049  -1785.231950
   12 Atom    -1789.722051  -1785.464282  -1785.249767
   13 Atom    -1789.893004  -1785.481243  -1785.282770
   14 Atom    -1790.008799  -1785.571410  -1785.303660
   15 Atom    -1789.959182  -1785.511424  -1785.291198
   16 Atom    -1789.962046  -1785.500018  -1785.262092
   17 Atom       -2.137708     -1.513626     -1.460843
 -----------------------------------------------------
 -----------------------------------------------------
    Center         ---- Electric Field Gradient ----
                       ( tensor representation )
                   3XX-RR        3YY-RR        3ZZ-RR
 -----------------------------------------------------
    1 Atom        0.730766     -0.669698     -0.061069
    2 Atom       -0.034355      0.168194     -0.133840
    3 Atom        0.603676     -0.605777      0.002101
    4 Atom        0.460173     -0.190356     -0.269817
    5 Atom        0.392921     -0.056120     -0.336801
    6 Atom        0.413175     -0.032205     -0.380970
    7 Atom        0.223235     -0.043062     -0.180173
    8 Atom        1.394099      0.033477     -1.427575
    9 Atom        1.492681     -0.100353     -1.392328
   10 Atom       -1.203848     -0.254844      1.458692
   11 Atom        1.675466      1.353869     -3.029334
   12 Atom        1.554630     -2.274331      0.719701
   13 Atom        1.515053      1.072945     -2.587998
   14 Atom        1.596110     -1.758661      0.162552
   15 Atom        1.629305      0.288028     -1.917333
   16 Atom        1.645482     -0.705896     -0.939586
   17 Atom        0.117735     -0.288950      0.171215
 -----------------------------------------------------
 -----------------------------------------------------
    Center         ---- Electric Field Gradient ----
                       ( tensor representation )
                   ----       Eigenvalues       ----
 -----------------------------------------------------
    1 Atom       -1.087134     -0.561727      1.648861
    2 Atom       -0.307107     -0.016446      0.323553
    3 Atom       -1.494006      0.373431      1.120575
    4 Atom       -0.430239     -0.035863      0.466102
    5 Atom       -0.390449     -0.021376      0.411825
    6 Atom       -0.385948     -0.027266      0.413214
    7 Atom       -0.185513     -0.178672      0.364184
    8 Atom       -2.972057      1.464538      1.507518
    9 Atom       -2.948899      1.448841      1.500058
   10 Atom       -2.960051      1.457851      1.502199
   11 Atom       -3.083003      1.394452      1.688551
   12 Atom       -2.910018      1.347751      1.562266
   13 Atom       -3.007332      1.404429      1.602902
   14 Atom       -3.047509      1.389880      1.657630
   15 Atom       -3.038580      1.409177      1.629403
   16 Atom       -3.053994      1.408034      1.645960
   17 Atom       -0.433649      0.190433      0.243216
 -----------------------------------------------------

 Test job not archived.
 1|1|UNPC-NP-ALMACH|FOpt|RB3LYP|6-311++G(d,p)|C5H1F9O2|HERA|03-Aug-2018
 |0||# RB3LYP/6-311++G** Opt Test prop=EFG||C5HO2F9||0,1|O,0.5390376361
 ,-3.2414312522,0.1626069822|C,1.3150469292,-2.3804534785,-0.1097846117
 |O,2.3876382455,-2.5539419216,-0.887638498|C,1.1228410663,-0.930973390
 3,0.4481626422|C,-0.0902834459,-0.2120344746,-0.2236433718|C,-0.151607
 2512,1.3368327962,0.0071301941|C,-1.5300163671,1.9947606815,-0.3377684
 453|F,-2.4650088996,1.6362299804,0.5431060777|F,-1.9251883601,1.640551
 17,-1.565686014|F,-1.3928540164,3.3239551303,-0.2969543402|F,0.9460785
 381,-0.9917096159,1.7781346132|F,2.2515859324,-0.1875108303,0.20007014
 82|F,0.0014978932,-0.4377118398,-1.5597303588|F,-1.2260687304,-0.77263
 3582,0.2320480487|F,0.1152511109,1.6044894746,1.3041531674|F,0.7868163
 127,1.9284580908,-0.7612739245|H,2.9098494063,-1.7411559386,-0.9546443
 094||Version=EM64W-G09RevD.01|State=1-A|HF=-1240.5297638|RMSD=4.398e-0
 09|RMSF=1.828e-005|Dipole=0.7633821,0.644396,-0.2581031|Quadrupole=6.4
 559622,-7.4938296,1.0378674,-1.8229478,-0.8751925,0.2754228|PG=C01 [X(
 C5H1F9O2)]||@


 WHEN A MATHEMATICIAN ENGAGED IN INVESTIGATING
 PHYSICAL ACTIONS AND RESULTS HAS ARRIVED AT HIS
 CONCLUSIONS, MAY THEY NOT BE EXPRESSED IN COMMON
 LANGUAGE AS FULLY, CLEARLY, AND DEFINITELY AS IN
 MATHEMATICAL FORMULAE?
           - LETTER FROM M. FARADAY TO J.C. MAXWELL, 1857.
 Job cpu time:       0 days  0 hours 40 minutes  4.0 seconds.
 File lengths (MBytes):  RWF=     58 Int=      0 D2E=      0 Chk=      9 Scr=      1
 Normal termination of Gaussian 09 at Fri Aug 03 21:09:25 2018.
