 Entering Link 1 = C:\G09W\l1.exe PID=     14144.
  
 Copyright (c) 1988,1990,1992,1993,1995,1998,2003,2009,2013,
            Gaussian, Inc.  All Rights Reserved.
  
 This is part of the Gaussian(R) 09 program.  It is based on
 the Gaussian(R) 03 system (copyright 2003, Gaussian, Inc.),
 the Gaussian(R) 98 system (copyright 1998, Gaussian, Inc.),
 the Gaussian(R) 94 system (copyright 1995, Gaussian, Inc.),
 the Gaussian 92(TM) system (copyright 1992, Gaussian, Inc.),
 the Gaussian 90(TM) system (copyright 1990, Gaussian, Inc.),
 the Gaussian 88(TM) system (copyright 1988, Gaussian, Inc.),
 the Gaussian 86(TM) system (copyright 1986, Carnegie Mellon
 University), and the Gaussian 82(TM) system (copyright 1983,
 Carnegie Mellon University). Gaussian is a federally registered
 trademark of Gaussian, Inc.
  
 This software contains proprietary and confidential information,
 including trade secrets, belonging to Gaussian, Inc.
  
 This software is provided under written license and may be
 used, copied, transmitted, or stored only in accord with that
 written license.
  
 The following legend is applicable only to US Government
 contracts under FAR:
  
                    RESTRICTED RIGHTS LEGEND
  
 Use, reproduction and disclosure by the US Government is
 subject to restrictions as set forth in subparagraphs (a)
 and (c) of the Commercial Computer Software - Restricted
 Rights clause in FAR 52.227-19.
  
 Gaussian, Inc.
 340 Quinnipiac St., Bldg. 40, Wallingford CT 06492
  
  
 ---------------------------------------------------------------
 Warning -- This program may not be used in any manner that
 competes with the business of Gaussian, Inc. or will provide
 assistance to any competitor of Gaussian, Inc.  The licensee
 of this program is prohibited from giving any competitor of
 Gaussian, Inc. access to this program.  By using this program,
 the user acknowledges that Gaussian, Inc. is engaged in the
 business of creating and licensing software in the field of
 computational chemistry and represents and warrants to the
 licensee that it is not a competitor of Gaussian, Inc. and that
 it will not use this program in any manner prohibited above.
 ---------------------------------------------------------------
  

 Cite this work as:
 Gaussian 09, Revision D.01,
 M. J. Frisch, G. W. Trucks, H. B. Schlegel, G. E. Scuseria, 
 M. A. Robb, J. R. Cheeseman, G. Scalmani, V. Barone, B. Mennucci, 
 G. A. Petersson, H. Nakatsuji, M. Caricato, X. Li, H. P. Hratchian, 
 A. F. Izmaylov, J. Bloino, G. Zheng, J. L. Sonnenberg, M. Hada, 
 M. Ehara, K. Toyota, R. Fukuda, J. Hasegawa, M. Ishida, T. Nakajima, 
 Y. Honda, O. Kitao, H. Nakai, T. Vreven, J. A. Montgomery, Jr., 
 J. E. Peralta, F. Ogliaro, M. Bearpark, J. J. Heyd, E. Brothers, 
 K. N. Kudin, V. N. Staroverov, T. Keith, R. Kobayashi, J. Normand, 
 K. Raghavachari, A. Rendell, J. C. Burant, S. S. Iyengar, J. Tomasi, 
 M. Cossi, N. Rega, J. M. Millam, M. Klene, J. E. Knox, J. B. Cross, 
 V. Bakken, C. Adamo, J. Jaramillo, R. Gomperts, R. E. Stratmann, 
 O. Yazyev, A. J. Austin, R. Cammi, C. Pomelli, J. W. Ochterski, 
 R. L. Martin, K. Morokuma, V. G. Zakrzewski, G. A. Voth, 
 P. Salvador, J. J. Dannenberg, S. Dapprich, A. D. Daniels, 
 O. Farkas, J. B. Foresman, J. V. Ortiz, J. Cioslowski, 
 and D. J. Fox, Gaussian, Inc., Wallingford CT, 2013.
 
 ******************************************
 Gaussian 09:  EM64W-G09RevD.01 13-Apr-2013
                03-Aug-2018 
 ******************************************
 %Chk=Anth_313.chk
 %Mem=64GB
 %NProcShared=20
 Will use up to   20 processors via shared memory.
 -------------------------------------
 # RB3LYP/6-311++G** Opt Test prop=EFG
 -------------------------------------
 1/14=-1,18=20,19=15,26=3,38=1/1,3;
 2/9=110,12=2,17=6,18=5,40=1/2;
 3/5=4,6=6,7=1111,11=2,16=1,25=1,30=1,71=1,74=-5,116=1/1,2,3;
 4//1;
 5/5=2,38=5/2;
 6/7=2,8=2,9=2,10=2,14=1,28=1/1,2;
 7//1,2,3,16;
 1/14=-1,18=20,19=15,26=3/3(2);
 2/9=110/2;
 99//99;
 2/9=110/2;
 3/5=4,6=6,7=1111,11=2,16=1,25=1,30=1,71=1,74=-5,116=1/1,2,3;
 4/5=5,16=3,69=1/1;
 5/5=2,38=5/2;
 7//1,2,3,16;
 1/14=-1,18=20,19=15,26=3/3(-5);
 2/9=110/2;
 6/7=2,8=2,9=2,10=2,14=1,19=2,28=1/1,2;
 99/9=1/99;
 --------
 C6HO2F11
 --------
 Symbolic Z-matrix:
 Charge =  0 Multiplicity = 1
 O                    -3.83541   1.23019  -0.77649 
 C                    -3.40288   0.29184  -0.1374 
 O                    -4.02217  -0.24718   0.93768 
 C                    -2.06691  -0.43849  -0.4424 
 C                    -0.87066   0.30551   0.11004 
 C                     0.50456  -0.29959  -0.09909 
 C                     1.70389   0.44384   0.46711 
 F                     1.51149   0.6085    1.76545 
 F                     1.71801   1.66449  -0.04222 
 F                    -2.11636  -1.66449   0.09767 
 F                    -1.92416  -0.60518  -1.76545 
 F                    -0.8837    1.53489  -0.37256 
 F                    -1.09147   0.45345   1.4044 
 F                     0.49957  -1.51943   0.4062 
 F                     0.697    -0.47462  -1.39351 
 C                     3.06086  -0.18006   0.25756 
 F                     3.11874  -1.36837   0.79222 
 F                     3.32307  -0.32358  -1.01202 
 F                     4.02217   0.53352   0.78057 
 H                    -3.55302  -1.01604   1.29831 
 

 GradGradGradGradGradGradGradGradGradGradGradGradGradGradGradGradGradGrad
 Berny optimization.
 Initialization pass.
                           ----------------------------
                           !    Initial Parameters    !
                           ! (Angstroms and Degrees)  !
 --------------------------                            --------------------------
 ! Name  Definition              Value          Derivative Info.                !
 --------------------------------------------------------------------------------
 ! R1    R(1,2)                  1.2149         estimate D2E/DX2                !
 ! R2    R(2,3)                  1.3527         estimate D2E/DX2                !
 ! R3    R(2,4)                  1.5528         estimate D2E/DX2                !
 ! R4    R(3,20)                 0.9702         estimate D2E/DX2                !
 ! R5    R(4,5)                  1.5132         estimate D2E/DX2                !
 ! R6    R(4,10)                 1.3406         estimate D2E/DX2                !
 ! R7    R(4,11)                 1.3411         estimate D2E/DX2                !
 ! R8    R(5,6)                  1.5169         estimate D2E/DX2                !
 ! R9    R(5,12)                 1.3208         estimate D2E/DX2                !
 ! R10   R(5,13)                 1.3214         estimate D2E/DX2                !
 ! R11   R(6,7)                  1.5204         estimate D2E/DX2                !
 ! R12   R(6,14)                 1.3204         estimate D2E/DX2                !
 ! R13   R(6,15)                 1.3203         estimate D2E/DX2                !
 ! R14   R(7,8)                  1.3228         estimate D2E/DX2                !
 ! R15   R(7,9)                  1.3227         estimate D2E/DX2                !
 ! R16   R(7,16)                 1.5082         estimate D2E/DX2                !
 ! R17   R(16,17)                1.3043         estimate D2E/DX2                !
 ! R18   R(16,18)                1.3043         estimate D2E/DX2                !
 ! R19   R(16,19)                1.3065         estimate D2E/DX2                !
 ! A1    A(1,2,3)              124.2531         estimate D2E/DX2                !
 ! A2    A(1,2,4)              124.4882         estimate D2E/DX2                !
 ! A3    A(3,2,4)              111.258          estimate D2E/DX2                !
 ! A4    A(2,3,20)             112.9435         estimate D2E/DX2                !
 ! A5    A(2,4,5)              112.1602         estimate D2E/DX2                !
 ! A6    A(2,4,10)             108.6183         estimate D2E/DX2                !
 ! A7    A(2,4,11)             110.109          estimate D2E/DX2                !
 ! A8    A(5,4,10)             109.374          estimate D2E/DX2                !
 ! A9    A(5,4,11)             109.7018         estimate D2E/DX2                !
 ! A10   A(10,4,11)            106.7191         estimate D2E/DX2                !
 ! A11   A(4,5,6)              118.0495         estimate D2E/DX2                !
 ! A12   A(4,5,12)             108.4484         estimate D2E/DX2                !
 ! A13   A(4,5,13)             106.2935         estimate D2E/DX2                !
 ! A14   A(6,5,12)             109.2611         estimate D2E/DX2                !
 ! A15   A(6,5,13)             109.3415         estimate D2E/DX2                !
 ! A16   A(12,5,13)            104.5995         estimate D2E/DX2                !
 ! A17   A(5,6,7)              117.9521         estimate D2E/DX2                !
 ! A18   A(5,6,14)             108.2005         estimate D2E/DX2                !
 ! A19   A(5,6,15)             108.6736         estimate D2E/DX2                !
 ! A20   A(7,6,14)             108.1927         estimate D2E/DX2                !
 ! A21   A(7,6,15)             108.3575         estimate D2E/DX2                !
 ! A22   A(14,6,15)            104.6707         estimate D2E/DX2                !
 ! A23   A(6,7,8)              108.1581         estimate D2E/DX2                !
 ! A24   A(6,7,9)              108.437          estimate D2E/DX2                !
 ! A25   A(6,7,16)             117.1116         estimate D2E/DX2                !
 ! A26   A(8,7,9)              105.3446         estimate D2E/DX2                !
 ! A27   A(8,7,16)             108.586          estimate D2E/DX2                !
 ! A28   A(9,7,16)             108.5814         estimate D2E/DX2                !
 ! A29   A(7,16,17)            111.0914         estimate D2E/DX2                !
 ! A30   A(7,16,18)            111.201          estimate D2E/DX2                !
 ! A31   A(7,16,19)            112.3632         estimate D2E/DX2                !
 ! A32   A(17,16,18)           106.8472         estimate D2E/DX2                !
 ! A33   A(17,16,19)           107.5097         estimate D2E/DX2                !
 ! A34   A(18,16,19)           107.569          estimate D2E/DX2                !
 ! D1    D(1,2,3,20)           177.3308         estimate D2E/DX2                !
 ! D2    D(4,2,3,20)            -2.975          estimate D2E/DX2                !
 ! D3    D(1,2,4,5)             80.9681         estimate D2E/DX2                !
 ! D4    D(1,2,4,10)          -158.0222         estimate D2E/DX2                !
 ! D5    D(1,2,4,11)           -41.4953         estimate D2E/DX2                !
 ! D6    D(3,2,4,5)            -98.7252         estimate D2E/DX2                !
 ! D7    D(3,2,4,10)            22.2845         estimate D2E/DX2                !
 ! D8    D(3,2,4,11)           138.8114         estimate D2E/DX2                !
 ! D9    D(2,4,5,6)            179.3311         estimate D2E/DX2                !
 ! D10   D(2,4,5,12)           -55.795          estimate D2E/DX2                !
 ! D11   D(2,4,5,13)            56.1887         estimate D2E/DX2                !
 ! D12   D(10,4,5,6)            58.7581         estimate D2E/DX2                !
 ! D13   D(10,4,5,12)         -176.3681         estimate D2E/DX2                !
 ! D14   D(10,4,5,13)          -64.3844         estimate D2E/DX2                !
 ! D15   D(11,4,5,6)           -57.9747         estimate D2E/DX2                !
 ! D16   D(11,4,5,12)           66.8991         estimate D2E/DX2                !
 ! D17   D(11,4,5,13)          178.8829         estimate D2E/DX2                !
 ! D18   D(4,5,6,7)           -179.4933         estimate D2E/DX2                !
 ! D19   D(4,5,6,14)           -56.3639         estimate D2E/DX2                !
 ! D20   D(4,5,6,15)            56.7485         estimate D2E/DX2                !
 ! D21   D(12,5,6,7)            56.0341         estimate D2E/DX2                !
 ! D22   D(12,5,6,14)          179.1635         estimate D2E/DX2                !
 ! D23   D(12,5,6,15)          -67.7241         estimate D2E/DX2                !
 ! D24   D(13,5,6,7)           -57.8966         estimate D2E/DX2                !
 ! D25   D(13,5,6,14)           65.2328         estimate D2E/DX2                !
 ! D26   D(13,5,6,15)          178.3452         estimate D2E/DX2                !
 ! D27   D(5,6,7,8)             56.5302         estimate D2E/DX2                !
 ! D28   D(5,6,7,9)            -57.2293         estimate D2E/DX2                !
 ! D29   D(5,6,7,16)           179.5382         estimate D2E/DX2                !
 ! D30   D(14,6,7,8)           -66.6031         estimate D2E/DX2                !
 ! D31   D(14,6,7,9)           179.6374         estimate D2E/DX2                !
 ! D32   D(14,6,7,16)           56.4049         estimate D2E/DX2                !
 ! D33   D(15,6,7,8)          -179.5537         estimate D2E/DX2                !
 ! D34   D(15,6,7,9)            66.6869         estimate D2E/DX2                !
 ! D35   D(15,6,7,16)          -56.5457         estimate D2E/DX2                !
 ! D36   D(6,7,16,17)          -59.4746         estimate D2E/DX2                !
 ! D37   D(6,7,16,18)           59.3932         estimate D2E/DX2                !
 ! D38   D(6,7,16,19)         -179.964          estimate D2E/DX2                !
 ! D39   D(8,7,16,17)           63.3137         estimate D2E/DX2                !
 ! D40   D(8,7,16,18)         -177.8185         estimate D2E/DX2                !
 ! D41   D(8,7,16,19)          -57.1756         estimate D2E/DX2                !
 ! D42   D(9,7,16,17)          177.3667         estimate D2E/DX2                !
 ! D43   D(9,7,16,18)          -63.7654         estimate D2E/DX2                !
 ! D44   D(9,7,16,19)           56.8774         estimate D2E/DX2                !
 --------------------------------------------------------------------------------
 Trust Radius=3.00D-01 FncErr=1.00D-07 GrdErr=1.00D-06
 Number of steps in this run=    107 maximum allowed number of steps=    120.
 GradGradGradGradGradGradGradGradGradGradGradGradGradGradGradGradGradGrad

                          Input orientation:                          
 ---------------------------------------------------------------------
 Center     Atomic      Atomic             Coordinates (Angstroms)
 Number     Number       Type             X           Y           Z
 ---------------------------------------------------------------------
      1          8           0       -3.835409    1.230187   -0.776493
      2          6           0       -3.402881    0.291843   -0.137398
      3          8           0       -4.022165   -0.247178    0.937678
      4          6           0       -2.066910   -0.438488   -0.442399
      5          6           0       -0.870655    0.305512    0.110038
      6          6           0        0.504560   -0.299588   -0.099090
      7          6           0        1.703886    0.443844    0.467106
      8          9           0        1.511487    0.608497    1.765448
      9          9           0        1.718010    1.664493   -0.042220
     10          9           0       -2.116359   -1.664493    0.097668
     11          9           0       -1.924159   -0.605184   -1.765448
     12          9           0       -0.883699    1.534888   -0.372555
     13          9           0       -1.091466    0.453446    1.404398
     14          9           0        0.499568   -1.519431    0.406195
     15          9           0        0.696998   -0.474615   -1.393507
     16          6           0        3.060864   -0.180057    0.257564
     17          9           0        3.118739   -1.368371    0.792216
     18          9           0        3.323065   -0.323584   -1.012016
     19          9           0        4.022165    0.533522    0.780569
     20          1           0       -3.553021   -1.016036    1.298314
 ---------------------------------------------------------------------
                    Distance matrix (angstroms):
                    1          2          3          4          5
     1  O    0.000000
     2  C    1.214912   0.000000
     3  O    2.270654   1.352718   0.000000
     4  C    2.454319   1.552813   2.400882   0.000000
     5  C    3.229664   2.544323   3.304916   1.513192   0.000000
     6  C    4.651281   3.952133   4.644230   2.598002   1.516937
     7  C    5.731375   5.144667   5.786762   3.978016   2.602863
     8  F    5.952920   5.279404   5.660273   4.333093   2.916639
     9  F    5.618562   5.302523   6.128972   4.348367   2.927661
    10  F    3.478284   2.353220   2.519225   1.340599   2.330848
    11  F    2.828338   2.375252   3.440449   1.341128   2.335955
    12  F    2.994762   2.818996   3.839588   2.301973   1.320769
    13  F    3.590102   2.783144   3.049213   2.271056   1.321367
    14  F    5.267938   4.336510   4.727279   2.911247   2.301225
    15  F    4.881574   4.355947   5.268458   2.923200   2.307982
    16  C    7.114537   6.492972   7.115923   5.181776   3.964137
    17  F    7.587722   6.793528   7.229851   5.411092   4.379785
    18  F    7.328944   6.810437   7.599970   5.421208   4.386577
    19  F    8.040600   7.485478   8.083651   6.286278   4.943813
    20  H    3.070844   1.947911   0.970205   2.360544   3.217697
                    6          7          8          9         10
     6  C    0.000000
     7  C    1.520412   0.000000
     8  F    2.305433   1.322808   0.000000
     9  F    2.309396   1.322723   2.103674   0.000000
    10  F    2.961570   4.379023   4.594479   5.079774   0.000000
    11  F    2.961218   4.387194   5.073846   4.624537   2.151808
    12  F    2.316754   2.931041   3.341582   2.625797   3.460722
    13  F    2.318369   2.948322   2.632444   3.384153   2.691396
    14  F    1.320362   2.304027   2.720225   3.438466   2.638050
    15  F    1.320296   2.306355   3.437371   2.728411   3.399175
    16  C    2.583830   1.508161   2.301326   2.301194   5.388205
    17  F    2.961529   2.321988   2.727352   3.443340   5.289266
    18  F    2.962766   2.323465   3.444546   2.732976   5.711109
    19  F    3.720406   2.341093   2.697983   2.695405   6.555845
    20  H    4.350862   5.518807   5.339154   6.063500   1.981425
                   11         12         13         14         15
    11  F    0.000000
    12  F    2.757284   0.000000
    13  F    3.444125   2.090513   0.000000
    14  F    3.380286   3.442200   2.723975   0.000000
    15  F    2.650632   2.753007   3.447923   2.090346   0.000000
    16  C    5.396644   4.347144   4.354124   2.894175   2.898390
    17  F    5.705692   5.079873   4.628132   2.651771   3.382457
    18  F    5.308514   4.643242   5.092241   3.378388   2.657927
    19  F    6.567924   5.138086   5.152164   4.094321   4.098742
    20  H    3.494085   4.052690   2.868777   4.180043   5.059812
                   16         17         18         19         20
    16  C    0.000000
    17  F    1.304336   0.000000
    18  F    1.304294   2.094894   0.000000
    19  F    1.306457   2.105590   2.106355   0.000000
    20  H    6.747258   6.700198   7.286815   7.749363   0.000000
 Stoichiometry    C6HF11O2
 Framework group  C1[X(C6HF11O2)]
 Deg. of freedom    54
 Full point group                 C1      NOp   1
 Largest Abelian subgroup         C1      NOp   1
 Largest concise Abelian subgroup C1      NOp   1
                         Standard orientation:                         
 ---------------------------------------------------------------------
 Center     Atomic      Atomic             Coordinates (Angstroms)
 Number     Number       Type             X           Y           Z
 ---------------------------------------------------------------------
      1          8           0       -3.944349   -0.915155    0.967166
      2          6           0       -3.456742   -0.285088    0.049959
      3          8           0       -3.987928   -0.213951   -1.192066
      4          6           0       -2.141941    0.535247    0.147810
      5          6           0       -0.913224   -0.337656    0.013488
      6          6           0        0.446982    0.331116    0.074170
      7          6           0        1.679813   -0.546481   -0.072806
      8          9           0        1.585499   -1.201330   -1.218274
      9          9           0        1.645117   -1.477252    0.866374
     10          9           0       -2.140081    1.458386   -0.824309
     11          9           0       -2.098993    1.200391    1.311581
     12          9           0       -0.973044   -1.287342    0.929430
     13          9           0       -1.036033   -0.976161   -1.136833
     14          9           0        0.490469    1.262894   -0.860310
     15          9           0        0.541719    0.994034    1.212039
     16          6           0        3.021957    0.139407   -0.020313
     17          9           0        3.130105    1.032171   -0.965072
     18          9           0        3.187886    0.765227    1.111941
     19          9           0        4.014419   -0.699223   -0.156508
     20          1           0       -3.486405    0.367423   -1.785172
 ---------------------------------------------------------------------
 Rotational constants (GHZ):      0.9104813      0.2375964      0.2324289
 Standard basis: 6-311++G(d,p) (5D, 7F)
 There are   444 symmetry adapted cartesian basis functions of A   symmetry.
 There are   425 symmetry adapted basis functions of A   symmetry.
   425 basis functions,   693 primitive gaussians,   444 cartesian basis functions
    76 alpha electrons       76 beta electrons
       nuclear repulsion energy      1904.4065246137 Hartrees.
 NAtoms=   20 NActive=   20 NUniq=   20 SFac= 1.00D+00 NAtFMM=   60 NAOKFM=F Big=F
 Integral buffers will be    131072 words long.
 Raffenetti 2 integral format.
 Two-electron integral symmetry is turned on.
 One-electron integrals computed using PRISM.
 NBasis=   425 RedAO= T EigKep=  2.68D-06  NBF=   425
 NBsUse=   425 1.00D-06 EigRej= -1.00D+00 NBFU=   425
 ExpMin= 3.60D-02 ExpMax= 1.14D+04 ExpMxC= 1.72D+03 IAcc=3 IRadAn=         5 AccDes= 0.00D+00
 Harris functional with IExCor=  402 and IRadAn=       5 diagonalized for initial guess.
 HarFok:  IExCor=  402 AccDes= 0.00D+00 IRadAn=         5 IDoV= 1 UseB2=F ITyADJ=14
 ICtDFT=  3500011 ScaDFX=  1.000000  1.000000  1.000000  1.000000
 FoFCou: FMM=F IPFlag=           0 FMFlag=      100000 FMFlg1=           0
         NFxFlg=           0 DoJE=T BraDBF=F KetDBF=T FulRan=T
         wScrn=  0.000000 ICntrl=     500 IOpCl=  0 I1Cent=   200000004 NGrid=           0
         NMat0=    1 NMatS0=      1 NMatT0=    0 NMatD0=    1 NMtDS0=    0 NMtDT0=    0
 Petite list used in FoFCou.
 Keep R1 ints in memory in canonical form, NReq=4142115501.
 Requested convergence on RMS density matrix=1.00D-08 within 128 cycles.
 Requested convergence on MAX density matrix=1.00D-06.
 Requested convergence on             energy=1.00D-06.
 No special actions if energy rises.
 SCF Done:  E(RB3LYP) =  -1478.35872738     A.U. after   13 cycles
            NFock= 13  Conv=0.76D-08     -V/T= 2.0019

 **********************************************************************

            Population analysis using the SCF density.

 **********************************************************************

 Orbital symmetries:
       Occupied  (A) (A) (A) (A) (A) (A) (A) (A) (A) (A) (A) (A)
                 (A) (A) (A) (A) (A) (A) (A) (A) (A) (A) (A) (A)
                 (A) (A) (A) (A) (A) (A) (A) (A) (A) (A) (A) (A)
                 (A) (A) (A) (A) (A) (A) (A) (A) (A) (A) (A) (A)
                 (A) (A) (A) (A) (A) (A) (A) (A) (A) (A) (A) (A)
                 (A) (A) (A) (A) (A) (A) (A) (A) (A) (A) (A) (A)
                 (A) (A) (A) (A)
       Virtual   (A) (A) (A) (A) (A) (A) (A) (A) (A) (A) (A) (A)
                 (A) (A) (A) (A) (A) (A) (A) (A) (A) (A) (A) (A)
                 (A) (A) (A) (A) (A) (A) (A) (A) (A) (A) (A) (A)
                 (A) (A) (A) (A) (A) (A) (A) (A) (A) (A) (A) (A)
                 (A) (A) (A) (A) (A) (A) (A) (A) (A) (A) (A) (A)
                 (A) (A) (A) (A) (A) (A) (A) (A) (A) (A) (A) (A)
                 (A) (A) (A) (A) (A) (A) (A) (A) (A) (A) (A) (A)
                 (A) (A) (A) (A) (A) (A) (A) (A) (A) (A) (A) (A)
                 (A) (A) (A) (A) (A) (A) (A) (A) (A) (A) (A) (A)
                 (A) (A) (A) (A) (A) (A) (A) (A) (A) (A) (A) (A)
                 (A) (A) (A) (A) (A) (A) (A) (A) (A) (A) (A) (A)
                 (A) (A) (A) (A) (A) (A) (A) (A) (A) (A) (A) (A)
                 (A) (A) (A) (A) (A) (A) (A) (A) (A) (A) (A) (A)
                 (A) (A) (A) (A) (A) (A) (A) (A) (A) (A) (A) (A)
                 (A) (A) (A) (A) (A) (A) (A) (A) (A) (A) (A) (A)
                 (A) (A) (A) (A) (A) (A) (A) (A) (A) (A) (A) (A)
                 (A) (A) (A) (A) (A) (A) (A) (A) (A) (A) (A) (A)
                 (A) (A) (A) (A) (A) (A) (A) (A) (A) (A) (A) (A)
                 (A) (A) (A) (A) (A) (A) (A) (A) (A) (A) (A) (A)
                 (A) (A) (A) (A) (A) (A) (A) (A) (A) (A) (A) (A)
                 (A) (A) (A) (A) (A) (A) (A) (A) (A) (A) (A) (A)
                 (A) (A) (A) (A) (A) (A) (A) (A) (A) (A) (A) (A)
                 (A) (A) (A) (A) (A) (A) (A) (A) (A) (A) (A) (A)
                 (A) (A) (A) (A) (A) (A) (A) (A) (A) (A) (A) (A)
                 (A) (A) (A) (A) (A) (A) (A) (A) (A) (A) (A) (A)
                 (A) (A) (A) (A) (A) (A) (A) (A) (A) (A) (A) (A)
                 (A) (A) (A) (A) (A) (A) (A) (A) (A) (A) (A) (A)
                 (A) (A) (A) (A) (A) (A) (A) (A) (A) (A) (A) (A)
                 (A) (A) (A) (A) (A) (A) (A) (A) (A) (A) (A) (A)
                 (A)
 The electronic state is 1-A.
 Alpha  occ. eigenvalues --  -24.76950 -24.76355 -24.76013 -24.76002 -24.75865
 Alpha  occ. eigenvalues --  -24.75825 -24.75750 -24.75725 -24.75689 -24.75664
 Alpha  occ. eigenvalues --  -24.75193 -19.22204 -19.17124 -10.47703 -10.42500
 Alpha  occ. eigenvalues --  -10.42416 -10.42302 -10.42170 -10.36935  -1.39999
 Alpha  occ. eigenvalues --   -1.37742  -1.35817  -1.35020  -1.34490  -1.29898
 Alpha  occ. eigenvalues --   -1.29188  -1.29140  -1.28222  -1.27820  -1.27644
 Alpha  occ. eigenvalues --   -1.15386  -1.07735  -0.88149  -0.85877  -0.81490
 Alpha  occ. eigenvalues --   -0.75504  -0.71979  -0.69421  -0.68372  -0.67845
 Alpha  occ. eigenvalues --   -0.66875  -0.66460  -0.65900  -0.65616  -0.64274
 Alpha  occ. eigenvalues --   -0.63996  -0.63586  -0.61808  -0.60766  -0.54523
 Alpha  occ. eigenvalues --   -0.54118  -0.53362  -0.53205  -0.52673  -0.52321
 Alpha  occ. eigenvalues --   -0.52232  -0.51838  -0.51013  -0.49989  -0.49363
 Alpha  occ. eigenvalues --   -0.49243  -0.48796  -0.48368  -0.48158  -0.47487
 Alpha  occ. eigenvalues --   -0.47147  -0.47055  -0.46521  -0.46247  -0.45957
 Alpha  occ. eigenvalues --   -0.45662  -0.44355  -0.42506  -0.38796  -0.37323
 Alpha  occ. eigenvalues --   -0.33387
 Alpha virt. eigenvalues --   -0.08244  -0.02782  -0.01180  -0.00941   0.01439
 Alpha virt. eigenvalues --    0.02225   0.03407   0.03746   0.04291   0.04857
 Alpha virt. eigenvalues --    0.06093   0.06837   0.07235   0.07422   0.07781
 Alpha virt. eigenvalues --    0.07906   0.08747   0.09177   0.09481   0.10348
 Alpha virt. eigenvalues --    0.10786   0.11109   0.11459   0.13061   0.13398
 Alpha virt. eigenvalues --    0.13866   0.15453   0.16558   0.16689   0.17416
 Alpha virt. eigenvalues --    0.18606   0.19031   0.19585   0.20378   0.20859
 Alpha virt. eigenvalues --    0.21620   0.21886   0.22080   0.22118   0.22710
 Alpha virt. eigenvalues --    0.23441   0.23775   0.23826   0.24171   0.24421
 Alpha virt. eigenvalues --    0.24707   0.25017   0.25237   0.25336   0.25653
 Alpha virt. eigenvalues --    0.25979   0.27242   0.28359   0.28857   0.29254
 Alpha virt. eigenvalues --    0.29603   0.29880   0.30096   0.31003   0.31618
 Alpha virt. eigenvalues --    0.31751   0.32310   0.32477   0.33469   0.33557
 Alpha virt. eigenvalues --    0.33980   0.34504   0.35006   0.35603   0.36137
 Alpha virt. eigenvalues --    0.37043   0.37211   0.37621   0.38097   0.38159
 Alpha virt. eigenvalues --    0.38649   0.39195   0.39564   0.40418   0.41777
 Alpha virt. eigenvalues --    0.42688   0.42884   0.43444   0.43952   0.44551
 Alpha virt. eigenvalues --    0.45121   0.45687   0.47656   0.48240   0.49067
 Alpha virt. eigenvalues --    0.49972   0.50836   0.52178   0.54511   0.54782
 Alpha virt. eigenvalues --    0.56212   0.58166   0.58981   0.59934   0.60824
 Alpha virt. eigenvalues --    0.61944   0.63727   0.64695   0.65620   0.67193
 Alpha virt. eigenvalues --    0.67305   0.68042   0.69901   0.70904   0.72808
 Alpha virt. eigenvalues --    0.73384   0.74383   0.77226   0.79664   0.83256
 Alpha virt. eigenvalues --    0.85290   0.89169   0.93077   0.95853   1.01728
 Alpha virt. eigenvalues --    1.02765   1.05200   1.05479   1.09099   1.10776
 Alpha virt. eigenvalues --    1.12468   1.13496   1.14534   1.16452   1.17498
 Alpha virt. eigenvalues --    1.19703   1.20887   1.26550   1.26851   1.28023
 Alpha virt. eigenvalues --    1.29988   1.30909   1.34325   1.34786   1.35367
 Alpha virt. eigenvalues --    1.37083   1.37283   1.38008   1.38353   1.39763
 Alpha virt. eigenvalues --    1.40207   1.40619   1.41243   1.41316   1.42647
 Alpha virt. eigenvalues --    1.42688   1.43836   1.44155   1.44602   1.45071
 Alpha virt. eigenvalues --    1.46025   1.46101   1.46432   1.47283   1.47438
 Alpha virt. eigenvalues --    1.48593   1.49705   1.50710   1.51340   1.52076
 Alpha virt. eigenvalues --    1.52970   1.55251   1.56143   1.56696   1.57647
 Alpha virt. eigenvalues --    1.58311   1.58798   1.60494   1.61571   1.63547
 Alpha virt. eigenvalues --    1.65562   1.68839   1.69250   1.71485   1.72026
 Alpha virt. eigenvalues --    1.75252   1.75705   1.79607   1.81096   1.84403
 Alpha virt. eigenvalues --    1.87171   1.87991   1.91347   1.93591   1.94718
 Alpha virt. eigenvalues --    1.96004   1.98553   2.00645   2.01610   2.02327
 Alpha virt. eigenvalues --    2.03794   2.05228   2.07063   2.09662   2.14909
 Alpha virt. eigenvalues --    2.19013   2.20581   2.21375   2.24805   2.26502
 Alpha virt. eigenvalues --    2.36495   2.40944   2.57245   2.62224   2.78888
 Alpha virt. eigenvalues --    2.81727   2.85092   2.86548   2.89497   2.90015
 Alpha virt. eigenvalues --    2.91458   2.92775   2.93958   2.95816   2.97889
 Alpha virt. eigenvalues --    3.00177   3.02679   3.06750   3.07392   3.14192
 Alpha virt. eigenvalues --    3.20371   3.23512   3.31616   3.34593   3.44046
 Alpha virt. eigenvalues --    3.45365   3.50134   3.55341   3.66432   3.69687
 Alpha virt. eigenvalues --    3.69936   3.70243   3.70399   3.71016   3.71508
 Alpha virt. eigenvalues --    3.71566   3.71802   3.72042   3.72696   3.73801
 Alpha virt. eigenvalues --    3.74190   3.74943   3.76029   3.76616   3.77164
 Alpha virt. eigenvalues --    3.77477   3.77640   3.78161   3.79193   3.79594
 Alpha virt. eigenvalues --    3.80978   3.82055   3.83213   3.84433   3.85169
 Alpha virt. eigenvalues --    3.86603   3.86965   3.91998   3.93072   3.94845
 Alpha virt. eigenvalues --    3.99552   4.05191   4.06884   4.09464   4.12196
 Alpha virt. eigenvalues --    4.13569   4.15148   4.15637   4.17132   4.19422
 Alpha virt. eigenvalues --    4.20888   4.21636   4.24495   4.26214   4.35363
 Alpha virt. eigenvalues --    4.56169   4.74207   4.80920   4.84291   4.85948
 Alpha virt. eigenvalues --    4.89308   4.90714   4.93417   4.94376   4.94684
 Alpha virt. eigenvalues --    4.98049   4.98297   5.03341   5.10462   5.30305
 Alpha virt. eigenvalues --    5.51694   5.82435   6.23117   6.28091   6.29803
 Alpha virt. eigenvalues --    6.30268   6.30886   6.32291   6.32369   6.32800
 Alpha virt. eigenvalues --    6.33397   6.34114   6.35806   6.36081   6.36458
 Alpha virt. eigenvalues --    6.37647   6.40117   6.41705   6.42070   6.43442
 Alpha virt. eigenvalues --    6.43794   6.47604   6.48668   6.50757   6.51649
 Alpha virt. eigenvalues --    6.53145   6.55170   6.62126   6.65503   6.68709
 Alpha virt. eigenvalues --    6.70362   6.75499   6.79881   6.85530   6.90680
 Alpha virt. eigenvalues --   23.45630  23.55763  23.61123  23.63137  23.63347
 Alpha virt. eigenvalues --   23.75237  49.83556  49.96462  66.70696  66.72130
 Alpha virt. eigenvalues --   66.72652  66.74077  66.74889  66.76759  66.77616
 Alpha virt. eigenvalues --   66.78459  66.81057  66.83403  66.83756
          Condensed to atoms (all electrons):
               1          2          3          4          5          6
     1  O    7.933653   0.402348  -0.112184  -0.115776  -0.006975   0.047486
     2  C    0.402348   8.489760   0.261152  -1.322361   0.755958  -1.874774
     3  O   -0.112184   0.261152   7.853355  -0.115191  -0.118550   0.038582
     4  C   -0.115776  -1.322361  -0.115191  12.268689  -4.247954   1.140960
     5  C   -0.006975   0.755958  -0.118550  -4.247954  20.645691 -11.145442
     6  C    0.047486  -1.874774   0.038582   1.140960 -11.145442  21.384782
     7  C    0.007575  -0.430125   0.004947  -1.399495   1.722808  -5.311890
     8  F    0.000049   0.003537  -0.000086  -0.006765   0.097874  -0.295792
     9  F   -0.000116   0.008897   0.000059   0.011012   0.053311  -0.226576
    10  F    0.014494  -0.167099   0.008339   0.312221  -0.209588   0.066967
    11  F   -0.000301  -0.142370   0.006548   0.312131  -0.130858   0.021390
    12  F    0.025752  -0.032489  -0.001307  -0.240618   0.672541  -0.306888
    13  F   -0.010163  -0.026501   0.030391  -0.285431   0.704055  -0.406930
    14  F   -0.000286   0.000411   0.000195   0.078229  -0.398536   0.700572
    15  F   -0.000147  -0.004227  -0.000431  -0.040037  -0.272301   0.631496
    16  C    0.000817  -0.072986   0.000734  -0.362768  -1.941632   1.379172
    17  F   -0.000002   0.000882   0.000000   0.007887  -0.003015   0.039683
    18  F    0.000004   0.000237  -0.000002   0.009198   0.001725   0.020168
    19  F   -0.000001   0.000429   0.000000   0.004271   0.032887   0.158679
    20  H    0.011488  -0.009520   0.226289  -0.042566   0.031598   0.012059
               7          8          9         10         11         12
     1  O    0.007575   0.000049  -0.000116   0.014494  -0.000301   0.025752
     2  C   -0.430125   0.003537   0.008897  -0.167099  -0.142370  -0.032489
     3  O    0.004947  -0.000086   0.000059   0.008339   0.006548  -0.001307
     4  C   -1.399495  -0.006765   0.011012   0.312221   0.312131  -0.240618
     5  C    1.722808   0.097874   0.053311  -0.209588  -0.130858   0.672541
     6  C   -5.311890  -0.295792  -0.226576   0.066967   0.021390  -0.306888
     7  C   13.819845   0.470919   0.420991   0.001804   0.008862  -0.004831
     8  F    0.470919   8.954611  -0.028853  -0.000054  -0.000276  -0.006945
     9  F    0.420991  -0.028853   8.944418  -0.000367   0.000219   0.023420
    10  F    0.001804  -0.000054  -0.000367   9.042835  -0.053128   0.016379
    11  F    0.008862  -0.000276   0.000219  -0.053128   8.970494  -0.004293
    12  F   -0.004831  -0.006945   0.023420   0.016379  -0.004293   8.901613
    13  F    0.046051   0.022334  -0.005105   0.003818   0.021004  -0.029589
    14  F   -0.324468   0.005465   0.010400   0.019785  -0.009677   0.010880
    15  F   -0.259405   0.010976   0.005755  -0.005101   0.024979   0.003489
    16  C   -2.205151  -0.196013  -0.190665   0.007320   0.009127  -0.013071
    17  F   -0.158018   0.001296   0.013150  -0.000103   0.000074  -0.000309
    18  F   -0.138516   0.012767   0.001141   0.000067  -0.000109   0.000156
    19  F   -0.254561   0.011857   0.011781   0.000000   0.000002  -0.000016
    20  H    0.003524   0.000094  -0.000017   0.011273   0.003547  -0.000397
              13         14         15         16         17         18
     1  O   -0.010163  -0.000286  -0.000147   0.000817  -0.000002   0.000004
     2  C   -0.026501   0.000411  -0.004227  -0.072986   0.000882   0.000237
     3  O    0.030391   0.000195  -0.000431   0.000734   0.000000  -0.000002
     4  C   -0.285431   0.078229  -0.040037  -0.362768   0.007887   0.009198
     5  C    0.704055  -0.398536  -0.272301  -1.941632  -0.003015   0.001725
     6  C   -0.406930   0.700572   0.631496   1.379172   0.039683   0.020168
     7  C    0.046051  -0.324468  -0.259405  -2.205151  -0.158018  -0.138516
     8  F    0.022334   0.005465   0.010976  -0.196013   0.001296   0.012767
     9  F   -0.005105   0.010400   0.005755  -0.190665   0.013150   0.001141
    10  F    0.003818   0.019785  -0.005101   0.007320  -0.000103   0.000067
    11  F    0.021004  -0.009677   0.024979   0.009127   0.000074  -0.000109
    12  F   -0.029589   0.010880   0.003489  -0.013071  -0.000309   0.000156
    13  F    8.970129   0.002771   0.009271  -0.006074   0.000178  -0.000321
    14  F    0.002771   8.923423  -0.010587   0.017537   0.016638  -0.007282
    15  F    0.009271  -0.010587   8.902242   0.023526  -0.007885   0.017064
    16  C   -0.006074   0.017537   0.023526   8.059177   0.280402   0.276705
    17  F    0.000178   0.016638  -0.007885   0.280402   8.955402  -0.021085
    18  F   -0.000321  -0.007282   0.017064   0.276705  -0.021085   8.951814
    19  F   -0.000010  -0.001342  -0.001354   0.197705  -0.041415  -0.041226
    20  H    0.003025  -0.001253   0.000285   0.000877   0.000013  -0.000004
              19         20
     1  O   -0.000001   0.011488
     2  C    0.000429  -0.009520
     3  O    0.000000   0.226289
     4  C    0.004271  -0.042566
     5  C    0.032887   0.031598
     6  C    0.158679   0.012059
     7  C   -0.254561   0.003524
     8  F    0.011857   0.000094
     9  F    0.011781  -0.000017
    10  F    0.000000   0.011273
    11  F    0.000002   0.003547
    12  F   -0.000016  -0.000397
    13  F   -0.000010   0.003025
    14  F   -0.001342  -0.001253
    15  F   -0.001354   0.000285
    16  C    0.197705   0.000877
    17  F   -0.041415   0.000013
    18  F   -0.041226  -0.000004
    19  F    9.010190  -0.000006
    20  H   -0.000006   0.471335
 Mulliken charges:
               1
     1  O   -0.197715
     2  C    0.158840
     3  O   -0.082840
     4  C    0.034366
     5  C   -0.243598
     6  C   -0.073704
     7  C   -0.020868
     8  F   -0.056996
     9  F   -0.052856
    10  F   -0.069862
    11  F   -0.037367
    12  F   -0.013477
    13  F   -0.042902
    14  F   -0.032878
    15  F   -0.027608
    16  C    0.735261
    17  F   -0.083775
    18  F   -0.082502
    19  F   -0.087873
    20  H    0.278354
 Sum of Mulliken charges =   0.00000
 Mulliken charges with hydrogens summed into heavy atoms:
               1
     1  O   -0.197715
     2  C    0.158840
     3  O    0.195514
     4  C    0.034366
     5  C   -0.243598
     6  C   -0.073704
     7  C   -0.020868
     8  F   -0.056996
     9  F   -0.052856
    10  F   -0.069862
    11  F   -0.037367
    12  F   -0.013477
    13  F   -0.042902
    14  F   -0.032878
    15  F   -0.027608
    16  C    0.735261
    17  F   -0.083775
    18  F   -0.082502
    19  F   -0.087873
 Electronic spatial extent (au):  <R**2>=           4461.3853
 Charge=              0.0000 electrons
 Dipole moment (field-independent basis, Debye):
    X=              0.9557    Y=              1.4682    Z=             -2.2292  Tot=              2.8352
 Quadrupole moment (field-independent basis, Debye-Ang):
   XX=           -111.5348   YY=           -104.9634   ZZ=           -102.5290
   XY=             -7.0275   XZ=              7.6879   YZ=             -0.3120
 Traceless Quadrupole moment (field-independent basis, Debye-Ang):
   XX=             -5.1924   YY=              1.3790   ZZ=              3.8134
   XY=             -7.0275   XZ=              7.6879   YZ=             -0.3120
 Octapole moment (field-independent basis, Debye-Ang**2):
  XXX=             82.9381  YYY=              4.7820  ZZZ=            -11.0619  XYY=             13.3246
  XXY=             33.0182  XXZ=            -23.7582  XZZ=              6.8364  YZZ=              5.1925
  YYZ=             -1.4089  XYZ=              0.6029
 Hexadecapole moment (field-independent basis, Debye-Ang**3):
 XXXX=          -4056.3024 YYYY=           -570.1101 ZZZZ=           -480.6040 XXXY=           -137.9624
 XXXZ=             71.9417 YYYX=            -12.3433 YYYZ=              3.8227 ZZZX=             36.2713
 ZZZY=             -5.7817 XXYY=           -739.7918 XXZZ=           -711.7306 YYZZ=           -183.1800
 XXYZ=             -0.3887 YYXZ=              7.1600 ZZXY=            -22.2028
 N-N= 1.904406524614D+03 E-N=-7.315295711551D+03  KE= 1.475495251551D+03

 **********************************************************************

            Electrostatic Properties Using The SCF Density

 **********************************************************************

       Atomic Center    1 is at  -3.944349 -0.915155  0.967166
       Atomic Center    2 is at  -3.456742 -0.285088  0.049959
       Atomic Center    3 is at  -3.987928 -0.213951 -1.192066
       Atomic Center    4 is at  -2.141941  0.535247  0.147810
       Atomic Center    5 is at  -0.913224 -0.337656  0.013488
       Atomic Center    6 is at   0.446982  0.331116  0.074170
       Atomic Center    7 is at   1.679813 -0.546481 -0.072806
       Atomic Center    8 is at   1.585499 -1.201330 -1.218274
       Atomic Center    9 is at   1.645117 -1.477252  0.866374
       Atomic Center   10 is at  -2.140081  1.458386 -0.824309
       Atomic Center   11 is at  -2.098993  1.200391  1.311581
       Atomic Center   12 is at  -0.973044 -1.287342  0.929430
       Atomic Center   13 is at  -1.036033 -0.976161 -1.136833
       Atomic Center   14 is at   0.490469  1.262894 -0.860310
       Atomic Center   15 is at   0.541719  0.994034  1.212039
       Atomic Center   16 is at   3.021957  0.139407 -0.020313
       Atomic Center   17 is at   3.130105  1.032171 -0.965072
       Atomic Center   18 is at   3.187886  0.765227  1.111941
       Atomic Center   19 is at   4.014419 -0.699223 -0.156508
       Atomic Center   20 is at  -3.486405  0.367423 -1.785172
 -----------------------------------------------------------------

              Electrostatic Properties (Atomic Units)

 -----------------------------------------------------------------
    Center     Electric         -------- Electric Field --------
               Potential          X             Y             Z
 -----------------------------------------------------------------
    1 Atom    -22.330437     -0.020191     -0.025377      0.036900
    2 Atom    -14.580537      0.004617      0.001984      0.005167
    3 Atom    -22.274085     -0.040728     -0.023707     -0.013121
    4 Atom    -14.524686     -0.004395     -0.019214      0.002111
    5 Atom    -14.523224      0.002314      0.018194      0.004028
    6 Atom    -14.522412     -0.000817     -0.017798     -0.001934
    7 Atom    -14.524306     -0.000538      0.016704      0.002492
    8 Atom    -26.524514     -0.002824     -0.026042     -0.043141
    9 Atom    -26.525722     -0.000714     -0.036334      0.035138
   10 Atom    -26.513486      0.001579      0.035227     -0.031105
   11 Atom    -26.531437      0.000149      0.023492      0.041228
   12 Atom    -26.526675     -0.002791     -0.036861      0.034979
   13 Atom    -26.519466     -0.003646     -0.025799     -0.043398
   14 Atom    -26.523050      0.001792      0.036439     -0.035380
   15 Atom    -26.524913      0.003430      0.026044      0.043624
   16 Atom    -14.466371     -0.015401     -0.006855     -0.000370
   17 Atom    -26.526181      0.006173      0.035086     -0.037072
   18 Atom    -26.526562      0.008386      0.024586      0.044420
   19 Atom    -26.523455      0.039551     -0.031696     -0.005162
   20 Atom     -0.908065      0.010573      0.013082     -0.012826
 -----------------------------------------------------------------
 -----------------------------------------------------
    Center         ---- Electric Field Gradient ----
                     XX            YY            ZZ
 -----------------------------------------------------
    1 Atom    -1237.964954  -1239.294502  -1238.439684
    2 Atom     -501.102054   -501.210508   -501.090208
    3 Atom    -1236.354279  -1236.446520  -1238.279216
    4 Atom     -500.387034   -500.894198   -501.256874
    5 Atom     -500.440652   -500.867035   -501.247798
    6 Atom     -500.445768   -500.883012   -501.244631
    7 Atom     -500.411555   -500.868395   -501.228721
    8 Atom    -1785.104209  -1786.532709  -1788.342896
    9 Atom    -1785.097289  -1787.675253  -1787.278587
   10 Atom    -1785.034146  -1787.402973  -1787.436528
   11 Atom    -1785.162980  -1786.665730  -1788.668551
   12 Atom    -1785.117237  -1787.830316  -1787.175991
   13 Atom    -1785.090853  -1786.395193  -1788.245151
   14 Atom    -1785.025119  -1787.613174  -1787.167910
   15 Atom    -1785.074717  -1786.585034  -1788.276759
   16 Atom     -500.338656   -500.653547   -500.771116
   17 Atom    -1785.280907  -1787.347050  -1787.384117
   18 Atom    -1785.345318  -1786.343214  -1788.356203
   19 Atom    -1788.080529  -1786.863213  -1785.338825
   20 Atom       -1.651298     -1.691643     -1.742631
 -----------------------------------------------------
 -----------------------------------------------------
    Center         ---- Electric Field Gradient ----
                     XY            XZ            YZ
 -----------------------------------------------------
    1 Atom        0.659010      1.123889      0.307134
    2 Atom        0.252746     -0.064625     -0.161890
    3 Atom       -0.303466     -0.050431      0.796908
    4 Atom        0.013443     -0.002196      0.080115
    5 Atom       -0.058573     -0.029227      0.043590
    6 Atom       -0.034742     -0.022349      0.053599
    7 Atom       -0.019653     -0.025691      0.046670
    8 Atom       -0.198355     -0.281502     -1.959660
    9 Atom       -0.119108      0.080920      2.166986
   10 Atom        0.027129     -0.071585      2.095241
   11 Atom       -0.055721     -0.144844     -1.989890
   12 Atom       -0.188110      0.141894      2.147326
   13 Atom       -0.265761     -0.412480     -1.891357
   14 Atom       -0.140251      0.100272      2.132257
   15 Atom       -0.206481     -0.287878     -1.973302
   16 Atom        0.227822      0.017716      0.009814
   17 Atom       -0.360826      0.377563      2.089151
   18 Atom       -0.346310     -0.613573     -1.803885
   19 Atom        2.029181      0.340863     -0.260845
   20 Atom       -0.207941      0.185406      0.240696
 -----------------------------------------------------
 -----------------------------------------------------
    Center         ---- Electric Field Gradient ----
                   ----       Eigenvalues       ----
 -----------------------------------------------------
    1 Atom    -1239.609599  -1239.240382  -1236.849160
    2 Atom     -501.438578   -501.152983   -500.811209
    3 Atom    -1238.578859  -1236.569187  -1235.931970
    4 Atom     -501.273811   -500.877618   -500.386678
    5 Atom     -501.253353   -500.870869   -500.431264
    6 Atom     -501.252774   -500.878495   -500.442143
    7 Atom     -501.235311   -500.863589   -500.409772
    8 Atom    -1789.622575  -1785.280391  -1785.076849
    9 Atom    -1789.657418  -1785.302880  -1785.090831
   10 Atom    -1789.516150  -1785.327735  -1785.029762
   11 Atom    -1789.899717  -1785.442341  -1785.155202
   12 Atom    -1789.687359  -1785.332032  -1785.104153
   13 Atom    -1789.480437  -1785.215021  -1785.035740
   14 Atom    -1789.540889  -1785.248327  -1785.016986
   15 Atom    -1789.605507  -1785.284755  -1785.046249
   16 Atom     -500.773195   -500.771698   -500.218426
   17 Atom    -1789.519150  -1785.277807  -1785.215116
   18 Atom    -1789.533869  -1785.286394  -1785.224471
   19 Atom    -1789.633261  -1785.353945  -1785.295361
   20 Atom       -2.122434     -1.508794     -1.454343
 -----------------------------------------------------
 -----------------------------------------------------
    Center         ---- Electric Field Gradient ----
                       ( tensor representation )
                   3XX-RR        3YY-RR        3ZZ-RR
 -----------------------------------------------------
    1 Atom        0.601426     -0.728122      0.126696
    2 Atom        0.032202     -0.076252      0.044049
    3 Atom        0.672393      0.580152     -1.252544
    4 Atom        0.459002     -0.048163     -0.410839
    5 Atom        0.411176     -0.015207     -0.395969
    6 Atom        0.412036     -0.025208     -0.386827
    7 Atom        0.424668     -0.032171     -0.392497
    8 Atom        1.555729      0.127229     -1.682958
    9 Atom        1.586421     -0.991544     -0.594877
   10 Atom        1.590403     -0.778424     -0.811979
   11 Atom        1.669441      0.166690     -1.836131
   12 Atom        1.590611     -1.122468     -0.468143
   13 Atom        1.486212      0.181873     -1.668085
   14 Atom        1.576949     -1.011106     -0.565842
   15 Atom        1.570786      0.060469     -1.631256
   16 Atom        0.249117     -0.065774     -0.183343
   17 Atom        1.389784     -0.676359     -0.713426
   18 Atom        1.336261      0.338364     -1.674625
   19 Atom       -1.319673     -0.102357      1.422031
   20 Atom        0.043893      0.003547     -0.047440
 -----------------------------------------------------
 -----------------------------------------------------
    Center         ---- Electric Field Gradient ----
                       ( tensor representation )
                   ----       Eigenvalues       ----
 -----------------------------------------------------
    1 Atom       -1.043219     -0.674002      1.717220
    2 Atom       -0.304321     -0.018726      0.323048
    3 Atom       -1.552187      0.457485      1.094702
    4 Atom       -0.427775     -0.031583      0.459358
    5 Atom       -0.401524     -0.019041      0.420565
    6 Atom       -0.394970     -0.020691      0.415661
    7 Atom       -0.399087     -0.027365      0.426452
    8 Atom       -2.962637      1.379547      1.583089
    9 Atom       -2.973709      1.380830      1.592879
   10 Atom       -2.891601      1.296814      1.594787
   11 Atom       -3.067297      1.390079      1.677218
   12 Atom       -2.979511      1.375816      1.603695
   13 Atom       -2.903371      1.362045      1.541326
   14 Atom       -2.938822      1.353740      1.585082
   15 Atom       -2.960004      1.360749      1.599255
   16 Atom       -0.185422     -0.183925      0.369347
   17 Atom       -2.848459      1.392884      1.455575
   18 Atom       -2.852291      1.395184      1.457107
   19 Atom       -2.872406      1.406911      1.465495
   20 Atom       -0.427244      0.186396      0.240848
 -----------------------------------------------------
 Calling FoFJK, ICntrl=      2127 FMM=F ISym2X=0 I1Cent= 0 IOpClX= 0 NMat=1 NMatS=1 NMatT=0.
 ***** Axes restored to original set *****
 -------------------------------------------------------------------
 Center     Atomic                   Forces (Hartrees/Bohr)
 Number     Number              X              Y              Z
 -------------------------------------------------------------------
      1        8           0.017190021   -0.034881355    0.021813460
      2        6          -0.022486587    0.021806291   -0.002781638
      3        8          -0.003804249    0.010531326   -0.007278542
      4        6          -0.006952406   -0.000200547   -0.026093967
      5        6           0.000887137    0.019353252    0.005261045
      6        6           0.005302843   -0.018873465   -0.012085189
      7        6          -0.015299852    0.021818613    0.009777212
      8        9          -0.000250664   -0.006008321    0.037531470
      9        9           0.006560402    0.028219101   -0.022824388
     10        9           0.000106780   -0.022390722    0.012474297
     11        9          -0.003069696    0.003407039   -0.010663908
     12        9           0.000727010    0.027759191   -0.025705087
     13        9          -0.006082963   -0.007535910    0.045174095
     14        9          -0.002505953   -0.033756263    0.027499540
     15        9           0.004433152    0.008012649   -0.040181393
     16        6           0.010913164   -0.013815569   -0.007129166
     17        9          -0.003648219   -0.035420132    0.022603847
     18        9           0.003443803    0.002250639   -0.041297164
     19        9           0.015096702    0.026782644    0.017146761
     20        1          -0.000560426    0.002941541   -0.003241286
 -------------------------------------------------------------------
 Cartesian Forces:  Max     0.045174095 RMS     0.018933182

 GradGradGradGradGradGradGradGradGradGradGradGradGradGradGradGradGradGrad
 Berny optimization.
 FormGI is forming the generalized inverse of G from B-inverse, IUseBI=4.
 GSVD:  received Info=                   1 from GESDD.
 Internal  Forces:  Max     0.044539379 RMS     0.015436704
 Search for a local minimum.
 Step number   1 out of a maximum of  107
 All quantities printed in internal units (Hartrees-Bohrs-Radians)
 Mixed Optimization -- RFO/linear search
 Second derivative matrix not updated -- first step.
 ITU=  0
     Eigenvalues ---    0.00230   0.00496   0.00542   0.00591   0.00658
     Eigenvalues ---    0.00750   0.02317   0.04669   0.04688   0.04861
     Eigenvalues ---    0.06244   0.06941   0.06963   0.07018   0.07872
     Eigenvalues ---    0.08392   0.08666   0.14236   0.14291   0.14469
     Eigenvalues ---    0.14523   0.16000   0.19905   0.19919   0.20079
     Eigenvalues ---    0.20108   0.25000   0.25000   0.25000   0.25000
     Eigenvalues ---    0.25000   0.25000   0.25000   0.25000   0.25000
     Eigenvalues ---    0.27413   0.30327   0.30664   0.31032   0.31536
     Eigenvalues ---    0.53335   0.54447   0.56953   0.57071   0.61237
     Eigenvalues ---    0.61258   0.61592   0.61740   0.61841   0.61858
     Eigenvalues ---    0.65431   0.66003   0.66015   0.97673
 RFO step:  Lambda=-4.90497167D-02 EMin= 2.30000000D-03
 Linear search not attempted -- first point.
 Maximum step size (   0.300) exceeded in Quadratic search.
    -- Step size scaled by   0.927
 Iteration  1 RMS(Cart)=  0.05934428 RMS(Int)=  0.00125754
 Iteration  2 RMS(Cart)=  0.00199034 RMS(Int)=  0.00033104
 Iteration  3 RMS(Cart)=  0.00000142 RMS(Int)=  0.00033104
 Iteration  4 RMS(Cart)=  0.00000000 RMS(Int)=  0.00033104
 Variable       Old X    -DE/DX   Delta X   Delta X   Delta X     New X
                                 (Linear)    (Quad)   (Total)
    R1        2.29585  -0.04454   0.00000  -0.04024  -0.04024   2.25561
    R2        2.55627  -0.01173   0.00000  -0.01831  -0.01831   2.53795
    R3        2.93439   0.01016   0.00000   0.02913   0.02913   2.96352
    R4        1.83342  -0.00381   0.00000  -0.00606  -0.00606   1.82736
    R5        2.85952   0.03050   0.00000   0.07865   0.07865   2.93817
    R6        2.53337   0.02551   0.00000   0.03815   0.03815   2.57151
    R7        2.53436   0.00977   0.00000   0.01463   0.01463   2.54900
    R8        2.86659   0.03129   0.00000   0.08153   0.08153   2.94813
    R9        2.49589   0.03522   0.00000   0.04898   0.04898   2.54487
   R10        2.49702   0.04442   0.00000   0.06190   0.06190   2.55892
   R11        2.87316   0.03084   0.00000   0.08111   0.08111   2.95428
   R12        2.49512   0.04172   0.00000   0.05793   0.05793   2.55305
   R13        2.49500   0.03897   0.00000   0.05410   0.05410   2.54910
   R14        2.49974   0.03612   0.00000   0.05061   0.05061   2.55035
   R15        2.49958   0.03491   0.00000   0.04890   0.04890   2.54848
   R16        2.85001   0.03276   0.00000   0.08331   0.08331   2.93332
   R17        2.46484   0.04137   0.00000   0.05406   0.05406   2.51890
   R18        2.46476   0.04063   0.00000   0.05310   0.05310   2.51786
   R19        2.46885   0.03261   0.00000   0.04296   0.04296   2.51181
    A1        2.16863  -0.00833   0.00000  -0.02580  -0.02580   2.14282
    A2        2.17273  -0.01308   0.00000  -0.04054  -0.04054   2.13219
    A3        1.94182   0.02141   0.00000   0.06636   0.06636   2.00818
    A4        1.97124  -0.00398   0.00000  -0.01766  -0.01766   1.95357
    A5        1.95756  -0.00305   0.00000  -0.01490  -0.01498   1.94259
    A6        1.89575   0.00290   0.00000   0.01109   0.01113   1.90688
    A7        1.92176  -0.00410   0.00000  -0.02164  -0.02163   1.90014
    A8        1.90894  -0.00133   0.00000  -0.00184  -0.00184   1.90709
    A9        1.91466   0.00380   0.00000   0.01129   0.01103   1.92568
   A10        1.86260   0.00203   0.00000   0.01772   0.01772   1.88032
   A11        2.06035  -0.00576   0.00000  -0.03440  -0.03500   2.02535
   A12        1.89278  -0.00124   0.00000  -0.01060  -0.01109   1.88169
   A13        1.85517   0.00119   0.00000   0.00138   0.00104   1.85621
   A14        1.90697   0.00088   0.00000  -0.00114  -0.00179   1.90517
   A15        1.90837  -0.00102   0.00000  -0.00548  -0.00579   1.90258
   A16        1.82561   0.00763   0.00000   0.06273   0.06278   1.88839
   A17        2.05865  -0.00853   0.00000  -0.04355  -0.04425   2.01440
   A18        1.88845   0.00057   0.00000  -0.00217  -0.00257   1.88588
   A19        1.89671   0.00004   0.00000  -0.00553  -0.00604   1.89067
   A20        1.88832   0.00122   0.00000   0.00128   0.00074   1.88906
   A21        1.89119   0.00145   0.00000   0.00075   0.00006   1.89125
   A22        1.82685   0.00713   0.00000   0.06251   0.06247   1.88932
   A23        1.88772   0.00364   0.00000   0.01476   0.01402   1.90174
   A24        1.89258   0.00342   0.00000   0.01344   0.01268   1.90526
   A25        2.04398  -0.00458   0.00000  -0.02790  -0.02821   2.01577
   A26        1.83861   0.00638   0.00000   0.05173   0.05131   1.88992
   A27        1.89518  -0.00387   0.00000  -0.02147  -0.02140   1.87378
   A28        1.89510  -0.00375   0.00000  -0.02141  -0.02138   1.87373
   A29        1.93891  -0.00550   0.00000  -0.01300  -0.01348   1.92543
   A30        1.94082  -0.00581   0.00000  -0.01431  -0.01483   1.92599
   A31        1.96111  -0.02035   0.00000  -0.07091  -0.07206   1.88905
   A32        1.86484   0.01104   0.00000   0.04932   0.04941   1.91424
   A33        1.87640   0.01156   0.00000   0.02884   0.02775   1.90414
   A34        1.87743   0.01158   0.00000   0.02831   0.02713   1.90456
    D1        3.09501  -0.00050   0.00000  -0.00686  -0.00688   3.08813
    D2       -0.05192  -0.00028   0.00000  -0.00316  -0.00315  -0.05507
    D3        1.41316   0.00076   0.00000   0.00229   0.00242   1.41558
    D4       -2.75801  -0.00089   0.00000  -0.00200  -0.00199  -2.76000
    D5       -0.72423   0.00093   0.00000   0.01361   0.01345  -0.71078
    D6       -1.72308   0.00053   0.00000  -0.00147  -0.00133  -1.72441
    D7        0.38894  -0.00112   0.00000  -0.00576  -0.00574   0.38319
    D8        2.42272   0.00070   0.00000   0.00985   0.00970   2.43242
    D9        3.12992   0.00173   0.00000   0.01238   0.01232  -3.14095
   D10       -0.97381  -0.00264   0.00000  -0.02529  -0.02510  -0.99891
   D11        0.98068   0.00612   0.00000   0.04250   0.04248   1.02316
   D12        1.02552   0.00096   0.00000   0.00933   0.00924   1.03476
   D13       -3.07820  -0.00342   0.00000  -0.02835  -0.02818  -3.10638
   D14       -1.12372   0.00534   0.00000   0.03944   0.03940  -1.08432
   D15       -1.01185  -0.00290   0.00000  -0.01748  -0.01764  -1.02949
   D16        1.16761  -0.00727   0.00000  -0.05516  -0.05506   1.11255
   D17        3.12210   0.00149   0.00000   0.01263   0.01252   3.13462
   D18       -3.13275  -0.00073   0.00000  -0.00588  -0.00587  -3.13862
   D19       -0.98374  -0.00490   0.00000  -0.03817  -0.03809  -1.02182
   D20        0.99045   0.00374   0.00000   0.03102   0.03084   1.02129
   D21        0.97798   0.00475   0.00000   0.03693   0.03692   1.01490
   D22        3.12699   0.00059   0.00000   0.00465   0.00471   3.13171
   D23       -1.18201   0.00923   0.00000   0.07383   0.07364  -1.10837
   D24       -1.01049  -0.00424   0.00000  -0.03407  -0.03396  -1.04445
   D25        1.13853  -0.00840   0.00000  -0.06635  -0.06617   1.07235
   D26        3.11271   0.00024   0.00000   0.00283   0.00275   3.11547
   D27        0.98664   0.00569   0.00000   0.03855   0.03880   1.02544
   D28       -0.99884  -0.00534   0.00000  -0.03622  -0.03649  -1.03533
   D29        3.13353   0.00021   0.00000   0.00182   0.00180   3.13534
   D30       -1.16244   0.01018   0.00000   0.07256   0.07280  -1.08965
   D31        3.13526  -0.00085   0.00000  -0.00221  -0.00249   3.13277
   D32        0.98445   0.00470   0.00000   0.03584   0.03580   1.02025
   D33       -3.13380   0.00054   0.00000  -0.00128  -0.00098  -3.13479
   D34        1.16391  -0.01049   0.00000  -0.07605  -0.07627   1.08763
   D35       -0.98691  -0.00494   0.00000  -0.03801  -0.03798  -1.02489
   D36       -1.03803  -0.00326   0.00000  -0.02237  -0.02205  -1.06007
   D37        1.03661   0.00319   0.00000   0.02171   0.02136   1.05797
   D38       -3.14096  -0.00017   0.00000  -0.00129  -0.00126   3.14096
   D39        1.10503  -0.00492   0.00000  -0.04069  -0.04014   1.06490
   D40       -3.10352   0.00154   0.00000   0.00339   0.00327  -3.10025
   D41       -0.99790  -0.00182   0.00000  -0.01961  -0.01936  -1.01726
   D42        3.09563  -0.00137   0.00000  -0.00210  -0.00201   3.09363
   D43       -1.11292   0.00509   0.00000   0.04198   0.04140  -1.07152
   D44        0.99270   0.00172   0.00000   0.01898   0.01878   1.01147
         Item               Value     Threshold  Converged?
 Maximum Force            0.044539     0.000450     NO 
 RMS     Force            0.015437     0.000300     NO 
 Maximum Displacement     0.272684     0.001800     NO 
 RMS     Displacement     0.058441     0.001200     NO 
 Predicted change in Energy=-2.768616D-02
 GradGradGradGradGradGradGradGradGradGradGradGradGradGradGradGradGradGrad

                          Input orientation:                          
 ---------------------------------------------------------------------
 Center     Atomic      Atomic             Coordinates (Angstroms)
 Number     Number       Type             X           Y           Z
 ---------------------------------------------------------------------
      1          8           0       -3.825455    1.200878   -0.791237
      2          6           0       -3.442444    0.280376   -0.134954
      3          8           0       -4.125333   -0.194827    0.919352
      4          6           0       -2.096365   -0.462495   -0.444062
      5          6           0       -0.878213    0.312057    0.133532
      6          6           0        0.521654   -0.331189   -0.112360
      7          6           0        1.735520    0.457447    0.478064
      8          9           0        1.570482    0.582332    1.811690
      9          9           0        1.765783    1.692796   -0.062045
     10          9           0       -2.135909   -1.708518    0.101467
     11          9           0       -1.972171   -0.602561   -1.779881
     12          9           0       -0.892753    1.552572   -0.390378
     13          9           0       -1.088724    0.413835    1.467313
     14          9           0        0.515713   -1.567656    0.432028
     15          9           0        0.703065   -0.456409   -1.443151
     16          6           0        3.128520   -0.185421    0.241964
     17          9           0        3.183504   -1.391419    0.807018
     18          9           0        3.375498   -0.289777   -1.063172
     19          9           0        4.047565    0.597616    0.797808
     20          1           0       -3.697319   -0.970429    1.307072
 ---------------------------------------------------------------------
                    Distance matrix (angstroms):
                    1          2          3          4          5
     1  O    0.000000
     2  C    1.193620   0.000000
     3  O    2.228012   1.343026   0.000000
     4  C    2.424271   1.568226   2.459117   0.000000
     5  C    3.214255   2.578443   3.379088   1.554812   0.000000
     6  C    4.658912   4.011059   4.762092   2.642214   1.560082
     7  C    5.752239   5.217131   5.913527   4.047216   2.640349
     8  F    6.022787   5.386096   5.817435   4.430107   2.980834
     9  F    5.660004   5.396839   6.263506   4.439302   2.989214
    10  F    3.480814   2.391365   2.630210   1.360786   2.380242
    11  F    2.768478   2.376355   3.476811   1.348872   2.386298
    12  F    2.980791   2.860882   3.901073   2.347777   1.346688
    13  F    3.634581   2.850451   3.145111   2.331662   1.354122
    14  F    5.292154   4.404962   4.864303   2.968479   2.359121
    15  F    4.866115   4.409022   5.381753   2.972377   2.361547
    16  C    7.165689   6.598227   7.285419   5.277010   4.038954
    17  F    7.641984   6.898217   7.406993   5.505009   4.455666
    18  F    7.358649   6.904418   7.758987   5.509484   4.459637
    19  F    8.054404   7.554529   8.212125   6.357197   4.978563
    20  H    3.022233   1.925854   0.966995   2.426422   3.311998
                    6          7          8          9         10
     6  C    0.000000
     7  C    1.563335   0.000000
     8  F    2.374137   1.349589   0.000000
     9  F    2.376321   1.348600   2.186814   0.000000
    10  F    3.000900   4.452100   4.680832   5.178694   0.000000
    11  F    3.012214   4.468658   5.182059   4.710830   2.188474
    12  F    2.372003   2.976796   3.443544   2.682402   3.524494
    13  F    2.375657   2.992803   2.686701   3.481794   2.732493
    14  F    1.351016   2.364549   2.763775   3.526660   2.675857
    15  F    1.348923   2.364776   3.524965   2.766930   3.466034
    16  C    2.634871   1.552247   2.341146   2.340336   5.482133
    17  F    3.009118   2.371323   2.739872   3.503938   5.375362
    18  F    3.008352   2.371345   3.504780   2.742996   5.809029
    19  F    3.758075   2.338254   2.676589   2.673068   6.636151
    20  H    4.497016   5.678189   5.515019   6.229987   2.106244
                   11         12         13         14         15
    11  F    0.000000
    12  F    2.782168   0.000000
    13  F    3.515367   2.187725   0.000000
    14  F    3.466051   3.520788   2.751788   0.000000
    15  F    2.700302   2.773259   3.526844   2.187754   0.000000
    16  C    5.502628   4.426185   4.432351   2.962003   2.965785
    17  F    5.821969   5.168821   4.684748   2.699776   3.477080
    18  F    5.404541   4.697326   5.179546   3.470875   2.704450
    19  F    6.657486   5.170152   5.182999   4.158867   4.161556
    20  H    3.555382   4.136721   2.957471   4.344194   5.214530
                   16         17         18         19         20
    16  C    0.000000
    17  F    1.332944   0.000000
    18  F    1.332392   2.179011   0.000000
    19  F    1.329192   2.168628   2.168498   0.000000
    20  H    6.952897   6.911803   7.490400   7.918418   0.000000
 Stoichiometry    C6HF11O2
 Framework group  C1[X(C6HF11O2)]
 Deg. of freedom    54
 Full point group                 C1      NOp   1
 Largest Abelian subgroup         C1      NOp   1
 Largest concise Abelian subgroup C1      NOp   1
                         Standard orientation:                         
 ---------------------------------------------------------------------
 Center     Atomic      Atomic             Coordinates (Angstroms)
 Number     Number       Type             X           Y           Z
 ---------------------------------------------------------------------
      1          8           0       -3.936167   -0.893567    0.987399
      2          6           0       -3.501879   -0.293535    0.051405
      3          8           0       -4.101699   -0.287573   -1.150219
      4          6           0       -2.180778    0.546961    0.138530
      5          6           0       -0.924798   -0.358829   -0.001106
      6          6           0        0.454415    0.366732    0.070942
      7          6           0        1.707049   -0.557150   -0.075237
      8          9           0        1.642898   -1.198567   -1.260927
      9          9           0        1.692681   -1.481142    0.906982
     10          9           0       -2.175223    1.478399   -0.853504
     11          9           0       -2.157474    1.202102    1.317387
     12          9           0       -0.982632   -1.295118    0.965117
     13          9           0       -1.034210   -0.980276   -1.199220
     14          9           0        0.493361    1.290730   -0.913921
     15          9           0        0.535106    1.007787    1.255058
     16          6           0        3.080153    0.164044   -0.012506
     17          9           0        3.181319    1.053565   -1.000057
     18          9           0        3.228099    0.777628    1.160905
     19          9           0        4.036212   -0.749079   -0.150012
     20          1           0       -3.643270    0.285533   -1.779879
 ---------------------------------------------------------------------
 Rotational constants (GHZ):      0.8758146      0.2300384      0.2259738
 Standard basis: 6-311++G(d,p) (5D, 7F)
 There are   444 symmetry adapted cartesian basis functions of A   symmetry.
 There are   425 symmetry adapted basis functions of A   symmetry.
   425 basis functions,   693 primitive gaussians,   444 cartesian basis functions
    76 alpha electrons       76 beta electrons
       nuclear repulsion energy      1871.7377511736 Hartrees.
 NAtoms=   20 NActive=   20 NUniq=   20 SFac= 1.00D+00 NAtFMM=   60 NAOKFM=F Big=F
 Integral buffers will be    131072 words long.
 Raffenetti 2 integral format.
 Two-electron integral symmetry is turned on.
 One-electron integrals computed using PRISM.
 NBasis=   425 RedAO= T EigKep=  3.57D-06  NBF=   425
 NBsUse=   425 1.00D-06 EigRej= -1.00D+00 NBFU=   425
 Initial guess from the checkpoint file:  "Anth_313.chk"
 B after Tr=     0.000000    0.000000    0.000000
         Rot=    0.999995    0.002764   -0.000370   -0.001479 Ang=   0.36 deg.
 ExpMin= 3.60D-02 ExpMax= 1.14D+04 ExpMxC= 1.72D+03 IAcc=3 IRadAn=         5 AccDes= 0.00D+00
 Harris functional with IExCor=  402 and IRadAn=       5 diagonalized for initial guess.
 HarFok:  IExCor=  402 AccDes= 0.00D+00 IRadAn=         5 IDoV= 1 UseB2=F ITyADJ=14
 ICtDFT=  3500011 ScaDFX=  1.000000  1.000000  1.000000  1.000000
 FoFCou: FMM=F IPFlag=           0 FMFlag=      100000 FMFlg1=           0
         NFxFlg=           0 DoJE=T BraDBF=F KetDBF=T FulRan=T
         wScrn=  0.000000 ICntrl=     500 IOpCl=  0 I1Cent=   200000004 NGrid=           0
         NMat0=    1 NMatS0=      1 NMatT0=    0 NMatD0=    1 NMtDS0=    0 NMtDT0=    0
 Petite list used in FoFCou.
 Keep R1 ints in memory in canonical form, NReq=4142115501.
 Requested convergence on RMS density matrix=1.00D-08 within 128 cycles.
 Requested convergence on MAX density matrix=1.00D-06.
 Requested convergence on             energy=1.00D-06.
 No special actions if energy rises.
 SCF Done:  E(RB3LYP) =  -1478.38263620     A.U. after   13 cycles
            NFock= 13  Conv=0.32D-08     -V/T= 2.0027
 Calling FoFJK, ICntrl=      2127 FMM=F ISym2X=0 I1Cent= 0 IOpClX= 0 NMat=1 NMatS=1 NMatT=0.
 ***** Axes restored to original set *****
 -------------------------------------------------------------------
 Center     Atomic                   Forces (Hartrees/Bohr)
 Number     Number              X              Y              Z
 -------------------------------------------------------------------
      1        8           0.005485406   -0.005895596    0.001443803
      2        6          -0.008012525    0.004955612    0.001341378
      3        8           0.002497270    0.000403651   -0.002087978
      4        6          -0.003520186    0.001650676   -0.009440117
      5        6          -0.000159461    0.005581660   -0.000079730
      6        6           0.001092570   -0.004656574   -0.002666254
      7        6          -0.005587872    0.006441132    0.002901339
      8        9          -0.000197835   -0.001101351    0.002609928
      9        9           0.000190708    0.001364455   -0.002114382
     10        9          -0.000031817   -0.004511260    0.003832775
     11        9          -0.000573062    0.001813222    0.002589892
     12        9           0.000828649    0.000719104   -0.001505059
     13        9          -0.000470645   -0.000700814    0.004989204
     14        9           0.000364749   -0.001978526    0.002111159
     15        9           0.000274395    0.001227291   -0.002071250
     16        6          -0.004419374   -0.001227794   -0.001238029
     17        9           0.003063762   -0.003402810    0.000058347
     18        9           0.003247650   -0.001846532   -0.002406416
     19        9           0.005291256    0.002012234    0.001744968
     20        1           0.000636361   -0.000847781   -0.000013578
 -------------------------------------------------------------------
 Cartesian Forces:  Max     0.009440117 RMS     0.003208158

 GradGradGradGradGradGradGradGradGradGradGradGradGradGradGradGradGradGrad
 Berny optimization.
 Using GEDIIS/GDIIS optimizer.
 FormGI is forming the generalized inverse of G from B-inverse, IUseBI=4.
 GSVD:  received Info=                   1 from GESDD.
 Internal  Forces:  Max     0.008554629 RMS     0.002205036
 Search for a local minimum.
 Step number   2 out of a maximum of  107
 All quantities printed in internal units (Hartrees-Bohrs-Radians)
 Mixed Optimization -- RFO/linear search
 Update second derivatives using D2CorX and points    1    2
 DE= -2.39D-02 DEPred=-2.77D-02 R= 8.64D-01
 TightC=F SS=  1.41D+00  RLast= 3.67D-01 DXNew= 5.0454D-01 1.1025D+00
 Trust test= 8.64D-01 RLast= 3.67D-01 DXMaxT set to 5.05D-01
 ITU=  1  0
 Use linear search instead of GDIIS.
     Eigenvalues ---    0.00230   0.00496   0.00542   0.00591   0.00658
     Eigenvalues ---    0.00757   0.02317   0.05152   0.05201   0.05241
     Eigenvalues ---    0.06457   0.07116   0.07132   0.07730   0.07930
     Eigenvalues ---    0.08988   0.09277   0.13596   0.13732   0.13787
     Eigenvalues ---    0.14071   0.16002   0.19485   0.19508   0.19612
     Eigenvalues ---    0.19733   0.24599   0.25000   0.25000   0.25000
     Eigenvalues ---    0.25000   0.25000   0.25000   0.25000   0.26456
     Eigenvalues ---    0.27578   0.30456   0.30861   0.31133   0.31579
     Eigenvalues ---    0.53348   0.54283   0.56482   0.57105   0.61229
     Eigenvalues ---    0.61301   0.61385   0.61778   0.61846   0.62645
     Eigenvalues ---    0.64959   0.66008   0.66226   0.96791
 RFO step:  Lambda=-1.25203607D-03 EMin= 2.30021330D-03
 Quartic linear search produced a step of  0.10179.
 Iteration  1 RMS(Cart)=  0.01764021 RMS(Int)=  0.00014066
 Iteration  2 RMS(Cart)=  0.00016033 RMS(Int)=  0.00006097
 Iteration  3 RMS(Cart)=  0.00000001 RMS(Int)=  0.00006097
 Variable       Old X    -DE/DX   Delta X   Delta X   Delta X     New X
                                 (Linear)    (Quad)   (Total)
    R1        2.25561  -0.00710  -0.00410  -0.00449  -0.00858   2.24703
    R2        2.53795  -0.00309  -0.00186  -0.00461  -0.00648   2.53147
    R3        2.96352  -0.00106   0.00296  -0.00691  -0.00394   2.95957
    R4        1.82736   0.00095  -0.00062   0.00250   0.00188   1.82924
    R5        2.93817   0.00487   0.00801   0.01003   0.01804   2.95620
    R6        2.57151   0.00568   0.00388   0.00756   0.01144   2.58295
    R7        2.54900  -0.00281   0.00149  -0.00671  -0.00522   2.54378
    R8        2.94813   0.00442   0.00830   0.00836   0.01666   2.96479
    R9        2.54487   0.00124   0.00499  -0.00212   0.00286   2.54774
   R10        2.55892   0.00493   0.00630   0.00333   0.00963   2.56855
   R11        2.95428   0.00299   0.00826   0.00339   0.01165   2.96593
   R12        2.55305   0.00266   0.00590  -0.00039   0.00551   2.55856
   R13        2.54910   0.00196   0.00551  -0.00130   0.00421   2.55331
   R14        2.55035   0.00250   0.00515   0.00001   0.00516   2.55552
   R15        2.54848   0.00211   0.00498  -0.00054   0.00444   2.55293
   R16        2.93332   0.00855   0.00848   0.02217   0.03065   2.96397
   R17        2.51890   0.00323   0.00550   0.00060   0.00611   2.52501
   R18        2.51786   0.00309   0.00540   0.00047   0.00588   2.52373
   R19        2.51181   0.00558   0.00437   0.00559   0.00996   2.52177
    A1        2.14282   0.00518  -0.00263   0.02513   0.02248   2.16530
    A2        2.13219  -0.00401  -0.00413  -0.01381  -0.01795   2.11423
    A3        2.00818  -0.00118   0.00675  -0.01130  -0.00457   2.00361
    A4        1.95357  -0.00077  -0.00180  -0.00352  -0.00532   1.94825
    A5        1.94259   0.00093  -0.00152   0.00173   0.00018   1.94277
    A6        1.90688  -0.00035   0.00113  -0.00538  -0.00426   1.90261
    A7        1.90014  -0.00063  -0.00220  -0.00015  -0.00235   1.89779
    A8        1.90709  -0.00111  -0.00019  -0.00754  -0.00774   1.89935
    A9        1.92568  -0.00017   0.00112  -0.00036   0.00074   1.92642
   A10        1.88032   0.00135   0.00180   0.01202   0.01383   1.89416
   A11        2.02535  -0.00069  -0.00356  -0.00279  -0.00643   2.01892
   A12        1.88169   0.00057  -0.00113   0.00423   0.00302   1.88471
   A13        1.85621   0.00022   0.00011   0.00088   0.00092   1.85713
   A14        1.90517  -0.00047  -0.00018  -0.00377  -0.00402   1.90115
   A15        1.90258  -0.00020  -0.00059  -0.00223  -0.00285   1.89973
   A16        1.88839   0.00069   0.00639   0.00439   0.01078   1.89917
   A17        2.01440  -0.00176  -0.00450  -0.00774  -0.01236   2.00204
   A18        1.88588   0.00087  -0.00026   0.00550   0.00517   1.89106
   A19        1.89067   0.00026  -0.00062  -0.00003  -0.00076   1.88991
   A20        1.88906  -0.00006   0.00008  -0.00123  -0.00120   1.88786
   A21        1.89125   0.00025   0.00001  -0.00179  -0.00190   1.88935
   A22        1.88932   0.00057   0.00636   0.00619   0.01254   1.90185
   A23        1.90174  -0.00002   0.00143  -0.00202  -0.00068   1.90105
   A24        1.90526  -0.00022   0.00129  -0.00350  -0.00230   1.90296
   A25        2.01577  -0.00031  -0.00287  -0.00225  -0.00518   2.01059
   A26        1.88992   0.00086   0.00522   0.00715   0.01234   1.90226
   A27        1.87378  -0.00017  -0.00218   0.00060  -0.00158   1.87220
   A28        1.87373  -0.00004  -0.00218   0.00084  -0.00135   1.87238
   A29        1.92543   0.00432  -0.00137   0.02035   0.01879   1.94422
   A30        1.92599   0.00421  -0.00151   0.01999   0.01829   1.94428
   A31        1.88905   0.00192  -0.00733   0.01490   0.00737   1.89642
   A32        1.91424  -0.00438   0.00503  -0.02321  -0.01836   1.89588
   A33        1.90414  -0.00310   0.00282  -0.01627  -0.01364   1.89051
   A34        1.90456  -0.00305   0.00276  -0.01604  -0.01347   1.89108
    D1        3.08813  -0.00019  -0.00070  -0.01135  -0.01216   3.07597
    D2       -0.05507  -0.00010  -0.00032  -0.00005  -0.00025  -0.05532
    D3        1.41558   0.00040   0.00025   0.01396   0.01418   1.42976
    D4       -2.76000  -0.00063  -0.00020   0.00210   0.00186  -2.75814
    D5       -0.71078   0.00044   0.00137   0.01340   0.01471  -0.69606
    D6       -1.72441   0.00030  -0.00014   0.00270   0.00261  -1.72180
    D7        0.38319  -0.00073  -0.00058  -0.00917  -0.00971   0.37349
    D8        2.43242   0.00033   0.00099   0.00214   0.00315   2.43556
    D9       -3.14095  -0.00016   0.00125  -0.02020  -0.01894   3.12329
   D10       -0.99891  -0.00081  -0.00255  -0.02376  -0.02630  -1.02521
   D11        1.02316   0.00037   0.00432  -0.01621  -0.01187   1.01129
   D12        1.03476   0.00042   0.00094  -0.00960  -0.00868   1.02608
   D13       -3.10638  -0.00024  -0.00287  -0.01317  -0.01604  -3.12242
   D14       -1.08432   0.00095   0.00401  -0.00561  -0.00161  -1.08592
   D15       -1.02949  -0.00046  -0.00180  -0.01948  -0.02129  -1.05078
   D16        1.11255  -0.00111  -0.00560  -0.02304  -0.02864   1.08391
   D17        3.13462   0.00007   0.00127  -0.01549  -0.01422   3.12040
[...]
          Condensed to atoms (all electrons):
               1          2          3          4          5          6
     1  O    7.965423   0.422366  -0.118374  -0.180864   0.029769   0.035347
     2  C    0.422366   7.311215   0.172530  -1.171194   0.628659  -1.120716
     3  O   -0.118374   0.172530   7.890410  -0.067223  -0.115626   0.052865
     4  C   -0.180864  -1.171194  -0.067223  10.865664  -3.902192   1.252670
     5  C    0.029769   0.628659  -0.115626  -3.902192  16.298455  -7.432360
     6  C    0.035347  -1.120716   0.052865   1.252670  -7.432360  15.722153
     7  C    0.001101  -0.102125   0.004590  -0.905257   1.264803  -3.642124
     8  F    0.000028   0.002436  -0.000024   0.051265   0.113092  -0.267524
     9  F   -0.000070   0.002115   0.000026  -0.003079  -0.073663  -0.042338
    10  F    0.017456  -0.190023   0.014017   0.243365  -0.187357   0.080350
    11  F   -0.004388  -0.092362   0.002065   0.314851  -0.023972  -0.118782
    12  F    0.020213  -0.064386   0.002223  -0.227857   0.518101  -0.246065
    13  F   -0.011982   0.051213   0.013937  -0.194053   0.526984  -0.276963
    14  F   -0.000231  -0.003202  -0.000220  -0.046609  -0.252018   0.585606
    15  F   -0.000260   0.022969  -0.000659   0.067921  -0.238946   0.447277
    16  C    0.000407  -0.040086   0.001130  -0.040814  -1.160481   0.985268
    17  F   -0.000002   0.000954   0.000002   0.006688   0.001608  -0.021776
    18  F    0.000002  -0.000082  -0.000001  -0.004301   0.059855  -0.038456
    19  F   -0.000001   0.000246   0.000000   0.001973   0.019909   0.107117
    20  H    0.014280   0.038954   0.220082  -0.048417   0.040584  -0.020034
               7          8          9         10         11         12
     1  O    0.001101   0.000028  -0.000070   0.017456  -0.004388   0.020213
     2  C   -0.102125   0.002436   0.002115  -0.190023  -0.092362  -0.064386
     3  O    0.004590  -0.000024   0.000026   0.014017   0.002065   0.002223
     4  C   -0.905257   0.051265  -0.003079   0.243365   0.314851  -0.227857
     5  C    1.264803   0.113092  -0.073663  -0.187357  -0.023972   0.518101
     6  C   -3.642124  -0.267524  -0.042338   0.080350  -0.118782  -0.246065
     7  C   11.074608   0.379856   0.323512   0.039604   0.010574   0.081239
     8  F    0.379856   8.950569  -0.035239  -0.000261  -0.000388  -0.001460
     9  F    0.323512  -0.035239   8.915052  -0.000348  -0.000312   0.018974
    10  F    0.039604  -0.000261  -0.000348   9.075029  -0.051632   0.011022
    11  F    0.010574  -0.000388  -0.000312  -0.051632   8.935985   0.007388
    12  F    0.081239  -0.001460   0.018974   0.011022   0.007388   8.886760
    13  F   -0.038731   0.012993  -0.000223   0.008503   0.012700  -0.032515
    14  F   -0.286048   0.003992   0.007601   0.011243  -0.001946   0.008230
    15  F   -0.172968   0.007888   0.014420   0.000572   0.019782   0.001893
    16  C   -1.594509  -0.204224  -0.123916   0.000879   0.001432   0.023091
    17  F   -0.067583   0.009632   0.010391  -0.000038   0.000025  -0.000321
    18  F   -0.085671   0.011270   0.002776   0.000041  -0.000053  -0.000273
    19  F   -0.208419   0.010167   0.015744   0.000001   0.000002  -0.000091
    20  H    0.000166  -0.000068   0.000016   0.015481   0.000679  -0.000198
              13         14         15         16         17         18
     1  O   -0.011982  -0.000231  -0.000260   0.000407  -0.000002   0.000002
     2  C    0.051213  -0.003202   0.022969  -0.040086   0.000954  -0.000082
     3  O    0.013937  -0.000220  -0.000659   0.001130   0.000002  -0.000001
     4  C   -0.194053  -0.046609   0.067921  -0.040814   0.006688  -0.004301
     5  C    0.526984  -0.252018  -0.238946  -1.160481   0.001608   0.059855
     6  C   -0.276963   0.585606   0.447277   0.985268  -0.021776  -0.038456
     7  C   -0.038731  -0.286048  -0.172968  -1.594509  -0.067583  -0.085671
     8  F    0.012993   0.003992   0.007888  -0.204224   0.009632   0.011270
     9  F   -0.000223   0.007601   0.014420  -0.123916   0.010391   0.002776
    10  F    0.008503   0.011243   0.000572   0.000879  -0.000038   0.000041
    11  F    0.012700  -0.001946   0.019782   0.001432   0.000025  -0.000053
    12  F   -0.032515   0.008230   0.001893   0.023091  -0.000321  -0.000273
    13  F    8.935501   0.013875   0.008014  -0.011044  -0.000370  -0.000353
    14  F    0.013875   8.905825  -0.026766   0.090803   0.013002  -0.003512
    15  F    0.008014  -0.026766   8.903632  -0.046141  -0.001941   0.012374
    16  C   -0.011044   0.090803  -0.046141   6.845444   0.247372   0.224072
    17  F   -0.000370   0.013002  -0.001941   0.247372   8.937673  -0.030141
    18  F   -0.000353  -0.003512   0.012374   0.224072  -0.030141   8.964737
    19  F    0.000053   0.000015  -0.002047   0.219620  -0.038614  -0.030861
    20  H    0.000421  -0.000744   0.000252   0.000392  -0.000020   0.000009
              19         20
     1  O   -0.000001   0.014280
     2  C    0.000246   0.038954
     3  O    0.000000   0.220082
     4  C    0.001973  -0.048417
     5  C    0.019909   0.040584
     6  C    0.107117  -0.020034
     7  C   -0.208419   0.000166
     8  F    0.010167  -0.000068
     9  F    0.015744   0.000016
    10  F    0.000001   0.015481
    11  F    0.000002   0.000679
    12  F   -0.000091  -0.000198
    13  F    0.000053   0.000421
    14  F    0.000015  -0.000744
    15  F   -0.002047   0.000252
    16  C    0.219620   0.000392
    17  F   -0.038614  -0.000020
    18  F   -0.030861   0.000009
    19  F    8.997145  -0.000002
    20  H   -0.000002   0.467117
 Mulliken charges:
               1
     1  O   -0.190221
     2  C    0.130519
     3  O   -0.071752
     4  C   -0.012540
     5  C   -0.115204
     6  C   -0.041514
     7  C   -0.076617
     8  F   -0.044001
     9  F   -0.031440
    10  F   -0.087906
    11  F   -0.011649
    12  F   -0.005969
    13  F   -0.017961
    14  F   -0.018897
    15  F   -0.017266
    16  C    0.581303
    17  F   -0.066543
    18  F   -0.081433
    19  F   -0.091958
    20  H    0.271047
 Sum of Mulliken charges =   0.00000
 Mulliken charges with hydrogens summed into heavy atoms:
               1
     1  O   -0.190221
     2  C    0.130519
     3  O    0.199295
     4  C   -0.012540
     5  C   -0.115204
     6  C   -0.041514
     7  C   -0.076617
     8  F   -0.044001
     9  F   -0.031440
    10  F   -0.087906
    11  F   -0.011649
    12  F   -0.005969
    13  F   -0.017961
    14  F   -0.018897
    15  F   -0.017266
    16  C    0.581303
    17  F   -0.066543
    18  F   -0.081433
    19  F   -0.091958
 Electronic spatial extent (au):  <R**2>=           4581.4685
 Charge=              0.0000 electrons
 Dipole moment (field-independent basis, Debye):
    X=              0.5381    Y=              2.5494    Z=             -0.8441  Tot=              2.7389
 Quadrupole moment (field-independent basis, Debye-Ang):
   XX=           -109.9608   YY=           -104.4710   ZZ=           -104.0934
   XY=            -10.3493   XZ=              1.9031   YZ=             -1.4566
 Traceless Quadrupole moment (field-independent basis, Debye-Ang):
   XX=             -3.7857   YY=              1.7041   ZZ=              2.0817
   XY=            -10.3493   XZ=              1.9031   YZ=             -1.4566
 Octapole moment (field-independent basis, Debye-Ang**2):
  XXX=             70.9253  YYY=             11.2032  ZZZ=              0.9140  XYY=              8.9575
  XXY=             43.8954  XXZ=             -0.0418  XZZ=              8.5212  YZZ=              3.6852
  YYZ=             -4.4862  XYZ=              5.1307
 Hexadecapole moment (field-independent basis, Debye-Ang**3):
 XXXX=          -4107.1820 YYYY=           -609.5642 ZZZZ=           -510.3703 XXXY=           -157.2115
 XXXZ=            -36.0110 YYYX=            -40.0634 YYYZ=             -5.1740 ZZZX=             -4.5570
 ZZZY=             -5.3113 XXYY=           -748.6292 XXZZ=           -733.3915 YYZZ=           -181.7403
 XXYZ=            -14.5086 YYXZ=             14.0237 ZZXY=            -14.8452
 N-N= 1.870835896367D+03 E-N=-7.247717946563D+03  KE= 1.474361830035D+03

 **********************************************************************

            Electrostatic Properties Using The SCF Density

 **********************************************************************

       Atomic Center    1 is at  -3.888795 -1.304805  0.126480
       Atomic Center    2 is at  -3.497038 -0.233358 -0.214416
       Atomic Center    3 is at  -4.110018  0.538791 -1.116383
       Atomic Center    4 is at  -2.186419  0.365092  0.396681
       Atomic Center    5 is at  -0.916544 -0.385118 -0.120370
       Atomic Center    6 is at   0.440178  0.361819  0.142965
       Atomic Center    7 is at   1.702915 -0.560515  0.011901
       Atomic Center    8 is at   1.569615 -1.347265 -1.078838
       Atomic Center    9 is at   1.786517 -1.339823  1.107654
       Atomic Center   10 is at  -2.075326  1.688849  0.043830
       Atomic Center   11 is at  -2.253750  0.292787  1.735694
       Atomic Center   12 is at  -0.873823 -1.599612  0.456555
       Atomic Center   13 is at  -1.064139 -0.540010 -1.460841
       Atomic Center   14 is at   0.548470  1.376472 -0.743655
       Atomic Center   15 is at   0.420221  0.878670  1.390117
       Atomic Center   16 is at   3.058929  0.210754 -0.127173
       Atomic Center   17 is at   3.146711  0.814108 -1.314475
       Atomic Center   18 is at   3.180221  1.127629  0.839311
       Atomic Center   19 is at   4.063187 -0.663967 -0.019045
       Atomic Center   20 is at  -3.652766  1.385530 -1.225068
 -----------------------------------------------------------------

              Electrostatic Properties (Atomic Units)

 -----------------------------------------------------------------
    Center     Electric         -------- Electric Field --------
               Potential          X             Y             Z
 -----------------------------------------------------------------
    1 Atom    -22.333674     -0.018814     -0.049576      0.015539
    2 Atom    -14.584758      0.008945      0.003343      0.005722
    3 Atom    -22.271517     -0.041122     -0.011471     -0.024894
    4 Atom    -14.520675     -0.002717     -0.015529     -0.014331
    5 Atom    -14.512632      0.001011      0.018480      0.009816
    6 Atom    -14.510013     -0.001183     -0.020270     -0.004842
    7 Atom    -14.512901      0.001099      0.020391     -0.000043
    8 Atom    -26.522560     -0.003877     -0.028080     -0.036146
    9 Atom    -26.524256      0.003186     -0.027861      0.036722
   10 Atom    -26.517436      0.005062      0.041853     -0.007318
   11 Atom    -26.527010     -0.003165     -0.002488      0.046211
   12 Atom    -26.523197      0.000172     -0.042534      0.018832
   13 Atom    -26.520960     -0.004011     -0.007020     -0.044157
   14 Atom    -26.520195      0.003439      0.034925     -0.028956
   15 Atom    -26.520929     -0.000305      0.018550      0.041945
   16 Atom    -14.456555     -0.016712     -0.009266      0.001561
   17 Atom    -26.523060      0.004789      0.021110     -0.041038
   18 Atom    -26.522022      0.006090      0.031881      0.032987
   19 Atom    -26.524148      0.035996     -0.029265      0.003672
   20 Atom     -0.907501      0.010222      0.022498     -0.004314
 -----------------------------------------------------------------
 -----------------------------------------------------
    Center         ---- Electric Field Gradient ----
                     XX            YY            ZZ
 -----------------------------------------------------
    1 Atom    -1237.666469  -1238.955560  -1238.329438
    2 Atom     -501.163779   -500.989806   -501.321739
    3 Atom    -1236.468242  -1237.992736  -1236.821065
    4 Atom     -500.427039   -501.129868   -501.088643
    5 Atom     -500.436243   -500.921610   -501.136146
    6 Atom     -500.427797   -500.865086   -501.187333
    7 Atom     -500.405884   -500.830251   -501.177224
    8 Atom    -1785.335690  -1787.104029  -1788.312681
    9 Atom    -1785.300291  -1787.097033  -1788.388139
   10 Atom    -1785.266117  -1789.440148  -1785.715375
   11 Atom    -1785.246700  -1785.525260  -1789.978856
   12 Atom    -1785.298420  -1789.243539  -1786.302096
   13 Atom    -1785.340289  -1785.551420  -1789.745131
   14 Atom    -1785.282112  -1788.076951  -1787.302659
   15 Atom    -1785.265475  -1786.219532  -1789.225008
   16 Atom     -500.371049   -500.666080   -500.787966
   17 Atom    -1785.481763  -1786.417349  -1788.963279
   18 Atom    -1785.529626  -1787.615168  -1787.766517
   19 Atom    -1788.140231  -1787.316573  -1785.532206
   20 Atom       -1.628494     -1.988437     -1.495177
 -----------------------------------------------------
 -----------------------------------------------------
    Center         ---- Electric Field Gradient ----
                     XY            XZ            YZ
 -----------------------------------------------------
    1 Atom       -0.025412      1.271517     -0.272963
    2 Atom        0.223592      0.103168     -0.107149
    3 Atom       -0.103647     -0.350625      1.022269
    4 Atom       -0.037584      0.084263      0.193714
    5 Atom       -0.001390     -0.085605      0.146998
    6 Atom       -0.035075      0.046431      0.081756
    7 Atom       -0.011104     -0.081807     -0.004412
    8 Atom       -0.257747     -0.361938     -2.120818
    9 Atom        0.159521     -0.259845      2.130894
   10 Atom       -0.276850      0.041453      1.017085
   11 Atom        0.024406      0.263598      0.165718
   12 Atom        0.124823     -0.086226      1.663258
   13 Atom       -0.062416     -0.550194     -0.568081
   14 Atom       -0.300447      0.232839      2.170733
   15 Atom        0.010290      0.069679     -1.640576
   16 Atom        0.227813     -0.040568     -0.025285
   17 Atom       -0.179574      0.348264      1.793842
   18 Atom       -0.319526     -0.358997     -2.174716
   19 Atom        2.164707     -0.273350      0.199899
   20 Atom       -0.262695      0.015478      0.086128
 -----------------------------------------------------
 -----------------------------------------------------
    Center         ---- Electric Field Gradient ----
                   ----       Eigenvalues       ----
 -----------------------------------------------------
    1 Atom    -1239.404179  -1238.878744  -1236.668543
    2 Atom     -501.465630   -501.174876   -500.834817
    3 Atom    -1238.588724  -1236.720817  -1235.972502
    4 Atom     -501.312122   -500.917217   -500.416211
    5 Atom     -501.218218   -500.850626   -500.425155
    6 Atom     -501.210526   -500.846804   -500.422885
    7 Atom     -501.185892   -500.830423   -500.397044
    8 Atom    -1789.956290  -1785.503832  -1785.292278
    9 Atom    -1789.988796  -1785.519034  -1785.277633
   10 Atom    -1789.717202  -1785.459533  -1785.244905
   11 Atom    -1789.999513  -1785.523105  -1785.228198
   12 Atom    -1789.997793  -1785.555431  -1785.290830
   13 Atom    -1789.888115  -1785.476384  -1785.272341
   14 Atom    -1789.925860  -1785.485695  -1785.250167
   15 Atom    -1789.948050  -1785.498959  -1785.263006
   16 Atom     -500.794080   -500.788032   -500.242984
   17 Atom    -1789.924489  -1785.490700  -1785.447202
   18 Atom    -1789.919405  -1785.523040  -1785.468866
   19 Atom    -1789.957756  -1785.537877  -1785.493378
   20 Atom       -2.137742     -1.513582     -1.460784
 -----------------------------------------------------
 -----------------------------------------------------
    Center         ---- Electric Field Gradient ----
                       ( tensor representation )
                   3XX-RR        3YY-RR        3ZZ-RR
 -----------------------------------------------------
    1 Atom        0.650687     -0.638404     -0.012282
    2 Atom       -0.005338      0.168635     -0.163298
    3 Atom        0.625772     -0.898722      0.272950
    4 Atom        0.454811     -0.248018     -0.206793
    5 Atom        0.395090     -0.090277     -0.304813
    6 Atom        0.398942     -0.038348     -0.360594
    7 Atom        0.398570     -0.025798     -0.372771
    8 Atom        1.581777     -0.186562     -1.395215
    9 Atom        1.628197     -0.168545     -1.459652
   10 Atom        1.541096     -2.632934      1.091838
   11 Atom        1.670238      1.391679     -3.061917
   12 Atom        1.649599     -2.295521      0.645922
   13 Atom        1.538658      1.327527     -2.866184
   14 Atom        1.605129     -1.189711     -0.415418
   15 Atom        1.637864      0.683806     -2.321670
   16 Atom        0.237316     -0.057715     -0.179601
   17 Atom        1.472368      0.536781     -2.009149
   18 Atom        1.440811     -0.644731     -0.796080
   19 Atom       -1.143894     -0.320237      1.464131
   20 Atom        0.075542     -0.284401      0.208859
 -----------------------------------------------------
 -----------------------------------------------------
    Center         ---- Electric Field Gradient ----
                       ( tensor representation )
                   ----       Eigenvalues       ----
 -----------------------------------------------------
    1 Atom       -1.087024     -0.561589      1.648613
    2 Atom       -0.307189     -0.016435      0.323624
    3 Atom       -1.494709      0.373197      1.121512
    4 Atom       -0.430272     -0.035367      0.465639
    5 Atom       -0.386885     -0.019293      0.406178
    6 Atom       -0.383788     -0.020066      0.403853
    7 Atom       -0.381439     -0.025970      0.407409
    8 Atom       -3.038823      1.413635      1.625188
    9 Atom       -3.060308      1.409454      1.650854
   10 Atom       -2.909989      1.347680      1.562308
   11 Atom       -3.082575      1.393834      1.688741
   12 Atom       -3.049774      1.392587      1.657188
   13 Atom       -3.009168      1.402562      1.606606
   14 Atom       -3.038620      1.401546      1.637074
   15 Atom       -3.044712      1.404380      1.640332
   16 Atom       -0.185715     -0.179667      0.365382
   17 Atom       -2.970358      1.463430      1.506928
   18 Atom       -2.948968      1.447397      1.501571
   19 Atom       -2.961419      1.458460      1.502959
   20 Atom       -0.433706      0.190454      0.243252
 -----------------------------------------------------

 Test job not archived.
 1|1|UNPC-NP-ALMACH|FOpt|RB3LYP|6-311++G(d,p)|C6H1F11O2|HERA|03-Aug-201
 8|0||# RB3LYP/6-311++G** Opt Test prop=EFG||C6HO2F11||0,1|O,-3.8159731
 267,1.3614721563,-0.0982168034|C,-3.4499643898,0.24427302,0.0904211797
 |O,-4.1249284789,-0.6559509736,0.8112014704|C,-2.1006872669,-0.2635688
 919,-0.5185554871|C,-0.869013949,0.3775062099,0.1988996916|C,0.5019411
 932,-0.3336497618,-0.0886640172|C,1.753486852,0.5397660349,0.276247578
 2|F,1.5455624778,1.1413951964,1.4684156066|F,1.9138217182,1.484892755,
 -0.6703319633|F,-2.0157601418,-1.6282229822,-0.3782492406|F,-2.0747633
 41,0.025096558,-1.8295539668|F,-0.7850483753,1.6686802542,-0.169181673
 1|F,-1.1092095909,0.3154387313,1.533476108|F,0.5473194128,-1.479554157
 3,0.6270078466|F,0.5681279807,-0.6417780138,-1.4015224691|C,3.09575676
 05,-0.2604527992,0.3808189313|F,3.1002172864,-1.0488618997,1.457767598
 6|F,3.2829351123,-1.0104260815,-0.7109537664|F,4.1060147639,0.60782956
 91,0.4848763681|H,-3.6772168972,-1.5146779241,0.812165008||Version=EM6
 4W-G09RevD.01|State=1-A|HF=-1478.3847625|RMSD=4.476e-009|RMSF=2.721e-0
 05|Dipole=0.1870923,-1.046041,0.1787542|Quadrupole=-2.5812263,1.426887
 7,1.1543385,7.9288294,-0.4241131,-0.5281783|PG=C01 [X(C6H1F11O2)]||@


 MORNING PEOPLE ARE USUALLY ADMIRED AS EARLY BIRDS.
 RECALL BEN FRANKLIN'S APHORISM THAT THE EARLY BIRD GETS THE WORM.
 I IDENTIFY WITH THE WORM. --  CRAIG JAGGER, MINNEAPOLIS, KS.
 Job cpu time:       0 days  0 hours 51 minutes 27.0 seconds.
 File lengths (MBytes):  RWF=     81 Int=      0 D2E=      0 Chk=     13 Scr=      1
 Normal termination of Gaussian 09 at Fri Aug 03 23:40:45 2018.
