 Entering Link 1 = C:\G09W\l1.exe PID=      1968.
  
 Copyright (c) 1988,1990,1992,1993,1995,1998,2003,2009,2013,
            Gaussian, Inc.  All Rights Reserved.
  
 This is part of the Gaussian(R) 09 program.  It is based on
 the Gaussian(R) 03 system (copyright 2003, Gaussian, Inc.),
 the Gaussian(R) 98 system (copyright 1998, Gaussian, Inc.),
 the Gaussian(R) 94 system (copyright 1995, Gaussian, Inc.),
 the Gaussian 92(TM) system (copyright 1992, Gaussian, Inc.),
 the Gaussian 90(TM) system (copyright 1990, Gaussian, Inc.),
 the Gaussian 88(TM) system (copyright 1988, Gaussian, Inc.),
 the Gaussian 86(TM) system (copyright 1986, Carnegie Mellon
 University), and the Gaussian 82(TM) system (copyright 1983,
 Carnegie Mellon University). Gaussian is a federally registered
 trademark of Gaussian, Inc.
  
 This software contains proprietary and confidential information,
 including trade secrets, belonging to Gaussian, Inc.
  
 This software is provided under written license and may be
 used, copied, transmitted, or stored only in accord with that
 written license.
  
 The following legend is applicable only to US Government
 contracts under FAR:
  
                    RESTRICTED RIGHTS LEGEND
  
 Use, reproduction and disclosure by the US Government is
 subject to restrictions as set forth in subparagraphs (a)
 and (c) of the Commercial Computer Software - Restricted
 Rights clause in FAR 52.227-19.
  
 Gaussian, Inc.
 340 Quinnipiac St., Bldg. 40, Wallingford CT 06492
  
  
 ---------------------------------------------------------------
 Warning -- This program may not be used in any manner that
 competes with the business of Gaussian, Inc. or will provide
 assistance to any competitor of Gaussian, Inc.  The licensee
 of this program is prohibited from giving any competitor of
 Gaussian, Inc. access to this program.  By using this program,
 the user acknowledges that Gaussian, Inc. is engaged in the
 business of creating and licensing software in the field of
 computational chemistry and represents and warrants to the
 licensee that it is not a competitor of Gaussian, Inc. and that
 it will not use this program in any manner prohibited above.
 ---------------------------------------------------------------
  

 Cite this work as:
 Gaussian 09, Revision D.01,
 M. J. Frisch, G. W. Trucks, H. B. Schlegel, G. E. Scuseria, 
 M. A. Robb, J. R. Cheeseman, G. Scalmani, V. Barone, B. Mennucci, 
 G. A. Petersson, H. Nakatsuji, M. Caricato, X. Li, H. P. Hratchian, 
 A. F. Izmaylov, J. Bloino, G. Zheng, J. L. Sonnenberg, M. Hada, 
 M. Ehara, K. Toyota, R. Fukuda, J. Hasegawa, M. Ishida, T. Nakajima, 
 Y. Honda, O. Kitao, H. Nakai, T. Vreven, J. A. Montgomery, Jr., 
 J. E. Peralta, F. Ogliaro, M. Bearpark, J. J. Heyd, E. Brothers, 
 K. N. Kudin, V. N. Staroverov, T. Keith, R. Kobayashi, J. Normand, 
 K. Raghavachari, A. Rendell, J. C. Burant, S. S. Iyengar, J. Tomasi, 
 M. Cossi, N. Rega, J. M. Millam, M. Klene, J. E. Knox, J. B. Cross, 
 V. Bakken, C. Adamo, J. Jaramillo, R. Gomperts, R. E. Stratmann, 
 O. Yazyev, A. J. Austin, R. Cammi, C. Pomelli, J. W. Ochterski, 
 R. L. Martin, K. Morokuma, V. G. Zakrzewski, G. A. Voth, 
 P. Salvador, J. J. Dannenberg, S. Dapprich, A. D. Daniels, 
 O. Farkas, J. B. Foresman, J. V. Ortiz, J. Cioslowski, 
 and D. J. Fox, Gaussian, Inc., Wallingford CT, 2013.
 
 ******************************************
 Gaussian 09:  EM64W-G09RevD.01 13-Apr-2013
                04-Aug-2018 
 ******************************************
 %Chk=Anth_314.chk
 %Mem=64GB
 %NProcShared=20
 Will use up to   20 processors via shared memory.
 -------------------------------------
 # RB3LYP/6-311++G** Opt Test prop=EFG
 -------------------------------------
 1/14=-1,18=20,19=15,26=3,38=1/1,3;
 2/9=110,12=2,17=6,18=5,40=1/2;
 3/5=4,6=6,7=1111,11=2,16=1,25=1,30=1,71=1,74=-5,116=1/1,2,3;
 4//1;
 5/5=2,38=5/2;
 6/7=2,8=2,9=2,10=2,14=1,28=1/1,2;
 7//1,2,3,16;
 1/14=-1,18=20,19=15,26=3/3(2);
 2/9=110/2;
 99//99;
 2/9=110/2;
 3/5=4,6=6,7=1111,11=2,16=1,25=1,30=1,71=1,74=-5,116=1/1,2,3;
 4/5=5,16=3,69=1/1;
 5/5=2,38=5/2;
 7//1,2,3,16;
 1/14=-1,18=20,19=15,26=3/3(-5);
 2/9=110/2;
 6/7=2,8=2,9=2,10=2,14=1,19=2,28=1/1,2;
 99/9=1/99;
 --------
 C7HO2F13
 --------
 Symbolic Z-matrix:
 Charge =  0 Multiplicity = 1
 F                     2.69584   2.45985  -2.20654 
 F                     1.95159   4.41029  -1.93456 
 F                     0.83294   2.98551  -3.00759 
 C                     1.61294   3.14908  -1.97504 
 F                     1.75375   2.93457   0.31018 
 F                    -0.11767   3.4624   -0.49298 
 C                     0.93899   2.69508  -0.70408 
 F                    -1.2377    1.52065   0.85804 
 F                     0.62457   0.99543   1.65537 
 F                     0.43502  -1.46779   0.48543 
 F                    -1.4171   -0.94846  -0.32118 
 F                    -2.393    -0.44989   2.17974 
 F                    -0.48239  -0.97825   3.00759 
 F                    -0.30061   1.00581  -1.65899 
 F                     1.558     0.48237  -0.85822 
 C                     0.49983   1.2402   -0.63534 
 C                    -0.18117   0.76034   0.63594 
 C                    -0.61428  -0.69311   0.69632 
 C                    -1.29227  -1.18288   1.95818 
 O                    -0.7444   -3.48408   2.38667 
 C                    -1.68638  -2.6813    1.85711 
 O                    -2.69584  -3.1333    1.36378 
 H                    -1.0165   -4.41029   2.28721 
 

 GradGradGradGradGradGradGradGradGradGradGradGradGradGradGradGradGradGrad
 Berny optimization.
 Initialization pass.
                           ----------------------------
                           !    Initial Parameters    !
                           ! (Angstroms and Degrees)  !
 --------------------------                            --------------------------
 ! Name  Definition              Value          Derivative Info.                !
 --------------------------------------------------------------------------------
 ! R1    R(1,4)                  1.3043         estimate D2E/DX2                !
 ! R2    R(2,4)                  1.3065         estimate D2E/DX2                !
 ! R3    R(3,4)                  1.3043         estimate D2E/DX2                !
 ! R4    R(4,7)                  1.5085         estimate D2E/DX2                !
 ! R5    R(5,7)                  1.3228         estimate D2E/DX2                !
 ! R6    R(6,7)                  1.3228         estimate D2E/DX2                !
 ! R7    R(7,16)                 1.5213         estimate D2E/DX2                !
 ! R8    R(8,17)                 1.3205         estimate D2E/DX2                !
 ! R9    R(9,17)                 1.3205         estimate D2E/DX2                !
 ! R10   R(10,18)                1.3212         estimate D2E/DX2                !
 ! R11   R(11,18)                1.321          estimate D2E/DX2                !
 ! R12   R(12,19)                1.3409         estimate D2E/DX2                !
 ! R13   R(13,19)                1.3413         estimate D2E/DX2                !
 ! R14   R(14,16)                1.3204         estimate D2E/DX2                !
 ! R15   R(15,16)                1.3205         estimate D2E/DX2                !
 ! R16   R(16,17)                1.5199         estimate D2E/DX2                !
 ! R17   R(17,18)                1.5178         estimate D2E/DX2                !
 ! R18   R(18,19)                1.5139         estimate D2E/DX2                !
 ! R19   R(19,21)                1.5527         estimate D2E/DX2                !
 ! R20   R(20,21)                1.3462         estimate D2E/DX2                !
 ! R21   R(20,23)                0.9705         estimate D2E/DX2                !
 ! R22   R(21,22)                1.2111         estimate D2E/DX2                !
 ! A1    A(1,4,2)              107.4811         estimate D2E/DX2                !
 ! A2    A(1,4,3)              106.8403         estimate D2E/DX2                !
 ! A3    A(1,4,7)              111.1871         estimate D2E/DX2                !
 ! A4    A(2,4,3)              107.4929         estimate D2E/DX2                !
 ! A5    A(2,4,7)              112.3475         estimate D2E/DX2                !
 ! A6    A(3,4,7)              111.2264         estimate D2E/DX2                !
 ! A7    A(4,7,5)              108.4411         estimate D2E/DX2                !
 ! A8    A(4,7,6)              108.4659         estimate D2E/DX2                !
 ! A9    A(4,7,16)             117.0562         estimate D2E/DX2                !
 ! A10   A(5,7,6)              105.3443         estimate D2E/DX2                !
 ! A11   A(5,7,16)             108.4392         estimate D2E/DX2                !
 ! A12   A(6,7,16)             108.4778         estimate D2E/DX2                !
 ! A13   A(7,16,14)            108.0436         estimate D2E/DX2                !
 ! A14   A(7,16,15)            108.0531         estimate D2E/DX2                !
 ! A15   A(7,16,17)            117.9741         estimate D2E/DX2                !
 ! A16   A(14,16,15)           104.6579         estimate D2E/DX2                !
 ! A17   A(14,16,17)           108.7094         estimate D2E/DX2                !
 ! A18   A(15,16,17)           108.6039         estimate D2E/DX2                !
 ! A19   A(8,17,9)             104.8241         estimate D2E/DX2                !
 ! A20   A(8,17,16)            108.5051         estimate D2E/DX2                !
 ! A21   A(8,17,18)            108.4431         estimate D2E/DX2                !
 ! A22   A(9,17,16)            108.428          estimate D2E/DX2                !
 ! A23   A(9,17,18)            108.2936         estimate D2E/DX2                !
 ! A24   A(16,17,18)           117.6103         estimate D2E/DX2                !
 ! A25   A(10,18,11)           104.263          estimate D2E/DX2                !
 ! A26   A(10,18,17)           109.1778         estimate D2E/DX2                !
 ! A27   A(10,18,19)           107.3992         estimate D2E/DX2                !
 ! A28   A(11,18,17)           109.1401         estimate D2E/DX2                !
 ! A29   A(11,18,19)           107.8976         estimate D2E/DX2                !
 ! A30   A(17,18,19)           118.0835         estimate D2E/DX2                !
 ! A31   A(12,19,13)           106.4389         estimate D2E/DX2                !
 ! A32   A(12,19,18)           109.1784         estimate D2E/DX2                !
 ! A33   A(12,19,21)           109.2645         estimate D2E/DX2                !
 ! A34   A(13,19,18)           109.4129         estimate D2E/DX2                !
 ! A35   A(13,19,21)           110.5748         estimate D2E/DX2                !
 ! A36   A(18,19,21)           111.8164         estimate D2E/DX2                !
 ! A37   A(21,20,23)           109.4285         estimate D2E/DX2                !
 ! A38   A(19,21,20)           111.8561         estimate D2E/DX2                !
 ! A39   A(19,21,22)           126.7466         estimate D2E/DX2                !
 ! A40   A(20,21,22)           121.3943         estimate D2E/DX2                !
 ! D1    D(1,4,7,5)             63.554          estimate D2E/DX2                !
 ! D2    D(1,4,7,6)            177.4724         estimate D2E/DX2                !
 ! D3    D(1,4,7,16)           -59.4507         estimate D2E/DX2                !
 ! D4    D(2,4,7,5)            -56.9552         estimate D2E/DX2                !
 ! D5    D(2,4,7,6)             56.9632         estimate D2E/DX2                !
 ! D6    D(2,4,7,16)          -179.9599         estimate D2E/DX2                !
 ! D7    D(3,4,7,5)           -177.5074         estimate D2E/DX2                !
 ! D8    D(3,4,7,6)            -63.589          estimate D2E/DX2                !
 ! D9    D(3,4,7,16)            59.4879         estimate D2E/DX2                !
 ! D10   D(4,7,16,14)          -56.3022         estimate D2E/DX2                !
 ! D11   D(4,7,16,15)           56.4095         estimate D2E/DX2                !
 ! D12   D(4,7,16,17)          179.9862         estimate D2E/DX2                !
 ! D13   D(5,7,16,14)         -179.3079         estimate D2E/DX2                !
 ! D14   D(5,7,16,15)          -66.5962         estimate D2E/DX2                !
 ! D15   D(5,7,16,17)           56.9806         estimate D2E/DX2                !
 ! D16   D(6,7,16,14)           66.7685         estimate D2E/DX2                !
 ! D17   D(6,7,16,15)          179.4803         estimate D2E/DX2                !
 ! D18   D(6,7,16,17)          -56.943          estimate D2E/DX2                !
 ! D19   D(7,16,17,8)           56.6056         estimate D2E/DX2                !
 ! D20   D(7,16,17,9)          -56.7169         estimate D2E/DX2                !
 ! D21   D(7,16,17,18)        -179.9221         estimate D2E/DX2                !
 ! D22   D(14,16,17,8)         -66.7724         estimate D2E/DX2                !
 ! D23   D(14,16,17,9)         179.9052         estimate D2E/DX2                !
 ! D24   D(14,16,17,18)         56.7            estimate D2E/DX2                !
 ! D25   D(15,16,17,8)         179.906          estimate D2E/DX2                !
 ! D26   D(15,16,17,9)          66.5835         estimate D2E/DX2                !
 ! D27   D(15,16,17,18)        -56.6216         estimate D2E/DX2                !
 ! D28   D(8,17,18,10)        -179.5482         estimate D2E/DX2                !
 ! D29   D(8,17,18,11)          67.0721         estimate D2E/DX2                !
 ! D30   D(8,17,18,19)         -56.5627         estimate D2E/DX2                !
 ! D31   D(9,17,18,10)         -66.3252         estimate D2E/DX2                !
 ! D32   D(9,17,18,11)        -179.7048         estimate D2E/DX2                !
 ! D33   D(9,17,18,19)          56.6604         estimate D2E/DX2                !
 ! D34   D(16,17,18,10)         56.9481         estimate D2E/DX2                !
 ! D35   D(16,17,18,11)        -56.4316         estimate D2E/DX2                !
 ! D36   D(16,17,18,19)        179.9336         estimate D2E/DX2                !
 ! D37   D(10,18,19,12)       -177.7771         estimate D2E/DX2                !
 ! D38   D(10,18,19,13)         66.1027         estimate D2E/DX2                !
 ! D39   D(10,18,19,21)        -56.7465         estimate D2E/DX2                !
 ! D40   D(11,18,19,12)        -65.9063         estimate D2E/DX2                !
 ! D41   D(11,18,19,13)        177.9735         estimate D2E/DX2                !
 ! D42   D(11,18,19,21)         55.1243         estimate D2E/DX2                !
 ! D43   D(17,18,19,12)         58.3469         estimate D2E/DX2                !
 ! D44   D(17,18,19,13)        -57.7733         estimate D2E/DX2                !
 ! D45   D(17,18,19,21)        179.3775         estimate D2E/DX2                !
 ! D46   D(12,19,21,20)       -144.4201         estimate D2E/DX2                !
 ! D47   D(12,19,21,22)         36.2126         estimate D2E/DX2                !
 ! D48   D(13,19,21,20)        -27.5868         estimate D2E/DX2                !
 ! D49   D(13,19,21,22)        153.046          estimate D2E/DX2                !
 ! D50   D(18,19,21,20)         94.5992         estimate D2E/DX2                !
 ! D51   D(18,19,21,22)        -84.768          estimate D2E/DX2                !
 ! D52   D(23,20,21,19)       -178.7415         estimate D2E/DX2                !
 ! D53   D(23,20,21,22)          0.6645         estimate D2E/DX2                !
 --------------------------------------------------------------------------------
 Trust Radius=3.00D-01 FncErr=1.00D-07 GrdErr=1.00D-06
 Number of steps in this run=    125 maximum allowed number of steps=    138.
 GradGradGradGradGradGradGradGradGradGradGradGradGradGradGradGradGradGrad

                          Input orientation:                          
 ---------------------------------------------------------------------
 Center     Atomic      Atomic             Coordinates (Angstroms)
 Number     Number       Type             X           Y           Z
 ---------------------------------------------------------------------
      1          9           0        2.695843    2.459849   -2.206541
      2          9           0        1.951589    4.410290   -1.934559
      3          9           0        0.832937    2.985510   -3.007592
      4          6           0        1.612936    3.149085   -1.975036
      5          9           0        1.753751    2.934570    0.310180
      6          9           0       -0.117669    3.462395   -0.492984
      7          6           0        0.938992    2.695080   -0.704080
      8          9           0       -1.237697    1.520647    0.858042
      9          9           0        0.624569    0.995429    1.655365
     10          9           0        0.435020   -1.467793    0.485430
     11          9           0       -1.417103   -0.948456   -0.321182
     12          9           0       -2.392998   -0.449893    2.179736
     13          9           0       -0.482388   -0.978246    3.007592
     14          9           0       -0.300606    1.005806   -1.658987
     15          9           0        1.557995    0.482373   -0.858221
     16          6           0        0.499833    1.240204   -0.635341
     17          6           0       -0.181168    0.760339    0.635939
     18          6           0       -0.614280   -0.693108    0.696322
     19          6           0       -1.292267   -1.182880    1.958182
     20          8           0       -0.744399   -3.484083    2.386671
     21          6           0       -1.686383   -2.681299    1.857109
     22          8           0       -2.695843   -3.133304    1.363783
     23          1           0       -1.016500   -4.410290    2.287207
 ---------------------------------------------------------------------
                    Distance matrix (angstroms):
                    1          2          3          4          5
     1  F    0.000000
     2  F    2.105257   0.000000
     3  F    2.094856   2.105417   0.000000
     4  C    1.304350   1.306508   1.304349   0.000000
     5  F    2.728879   2.693649   3.443560   2.299578   0.000000
     6  F    3.443432   2.694155   2.730261   2.299921   2.103779
     7  C    2.323628   2.341234   2.324170   1.508526   1.322842
     8  F    5.074102   5.130322   4.623470   4.336387   3.353818
     9  F    4.620500   5.129309   5.074151   4.335310   2.616265
    10  F    5.271091   6.535150   5.673751   5.362550   4.598974
    11  F    5.664578   6.532016   5.268355   5.357818   5.052804
    12  F    7.321361   7.708712   7.008354   6.801638   5.669688
    13  F    7.007769   7.706194   7.322833   6.800869   5.252283
    14  F    3.375317   4.091312   2.650072   2.890532   3.437751
    15  F    2.650109   4.091693   3.378047   2.891651   2.723371
    16  C    2.962881   3.720888   2.963887   2.584107   2.310237
    17  C    4.386937   4.947550   4.388065   3.967632   2.928705
    18  C    5.415225   6.288870   5.417162   5.182576   4.349336
    19  C    6.820514   7.547157   6.822820   6.532712   5.380291
    20  O    8.262154   9.394813   8.569813   8.281330   7.193864
    21  C    7.883436   8.826223   7.881942   7.717786   6.765020
    22  O    8.549904   9.454284   8.306690   8.317554   7.597898
    23  H    9.009665  10.219368   9.281873   9.067789   8.095054
                    6          7          8          9         10
     6  F    0.000000
     7  C    1.322825   0.000000
     8  F    2.617273   2.925319   0.000000
     9  F    3.354436   2.924834   2.092752   0.000000
    10  F    5.056631   4.358719   3.444938   2.733521   0.000000
    11  F    4.601484   4.355818   2.742121   3.442942   2.085832
    12  F    5.256097   5.413816   2.639057   3.386684   3.450287
    13  F    5.666246   5.412038   3.381645   2.636146   2.728112
    14  F    2.725410   2.302628   2.734709   3.441073   3.355348
    15  F    3.438281   2.302824   3.440852   2.729950   2.620996
    16  C    2.310781   1.521266   2.308214   2.307121   2.931480
    17  C    2.929096   2.606460   1.320474   1.320496   2.316660
    18  C    4.350779   3.981658   2.305540   2.303403   1.321228
    19  C    5.382051   5.206220   2.919305   2.917360   2.287727
    20  O    7.545778   7.111160   5.256175   4.740771   3.011839
    21  C    6.762306   6.508282   4.342327   4.347359   2.802579
    22  O    7.321053   7.173433   4.903185   5.306279   3.653455
    23  H    8.397412   7.953492   6.104708   5.684552   3.743207
                   11         12         13         14         15
    11  F    0.000000
    12  F    2.730481   0.000000
    13  F    3.457646   2.148240   0.000000
    14  F    2.618287   4.607923   5.074098   0.000000
    15  F    3.344681   5.070370   4.608805   2.090360   0.000000
    16  C    2.926358   4.376021   4.376898   1.320415   1.320489
    17  C    2.315944   2.956377   2.956036   2.311105   2.309647
    18  C    1.321000   2.328843   2.332524   2.920990   2.918414
    19  C    2.294785   1.340882   1.341283   4.342540   4.339261
    20  O    3.770199   3.459337   2.594882   6.059984   5.618106
    21  C    2.796464   2.362745   2.381933   5.279967   5.282786
    22  O    3.041027   2.821026   3.499395   5.657431   6.008790
    23  H    4.352984   4.194168   3.547274   6.739365   6.360809
                   16         17         18         19         20
    16  C    0.000000
    17  C    1.519929   0.000000
    18  C    2.598513   1.517808   0.000000
    19  C    3.976094   2.599801   1.513880   0.000000
    20  O    5.744524   4.625733   3.265540   2.404017   0.000000
    21  C    5.135176   3.949911   2.539633   1.552676   1.346192
    22  O    5.773769   4.691887   3.276120   2.475377   2.231027
    23  H    6.539773   5.491800   4.063267   3.255838   0.970459
                   21         22         23
    21  C    0.000000
    22  O    1.211069   0.000000
    23  H    1.903454   2.302954   0.000000
 Stoichiometry    C7HF13O2
 Framework group  C1[X(C7HF13O2)]
 Deg. of freedom    63
 Full point group                 C1      NOp   1
 Largest Abelian subgroup         C1      NOp   1
 Largest concise Abelian subgroup C1      NOp   1
                         Standard orientation:                         
 ---------------------------------------------------------------------
 Center     Atomic      Atomic             Coordinates (Angstroms)
 Number     Number       Type             X           Y           Z
 ---------------------------------------------------------------------
      1          9           0       -3.699388   -1.138845   -1.052857
      2          9           0       -4.716014    0.404137   -0.044003
      3          9           0       -3.725050   -1.103299    1.041540
      4          6           0       -3.647045   -0.346590   -0.018004
      5          9           0       -2.378664    1.248954   -1.082666
      6          9           0       -2.403474    1.285702    1.020645
      7          6           0       -2.375742    0.465467   -0.016810
      8          9           0        0.213488    1.318349    1.044309
      9          9           0        0.237183    1.280330   -1.047964
     10          9           0        1.571257   -1.104916   -0.993299
     11          9           0        1.543008   -1.079423    1.092185
     12          9           0        2.851866    1.316881    1.104181
     13          9           0        2.873300    1.291901   -1.043807
     14          9           0       -1.075142   -1.093587    1.069418
     15          9           0       -1.049502   -1.127223   -1.020514
     16          6           0       -1.063465   -0.303546    0.011498
     17          6           0        0.230393    0.494023    0.012877
     18          6           0        1.534805   -0.281571    0.039376
     19          6           0        2.830046    0.502128    0.039442
     20          8           0        4.549794   -0.685953   -1.148087
     21          6           0        4.069600   -0.431871    0.083615
     22          8           0        4.579408   -0.913073    1.071152
     23          1           0        5.309021   -1.286672   -1.080984
 ---------------------------------------------------------------------
 Rotational constants (GHZ):      0.7628411      0.1597459      0.1559585
 Standard basis: 6-311++G(d,p) (5D, 7F)
 There are   513 symmetry adapted cartesian basis functions of A   symmetry.
 There are   491 symmetry adapted basis functions of A   symmetry.
   491 basis functions,   801 primitive gaussians,   513 cartesian basis functions
    88 alpha electrons       88 beta electrons
       nuclear repulsion energy      2403.6417007085 Hartrees.
 NAtoms=   23 NActive=   23 NUniq=   23 SFac= 1.00D+00 NAtFMM=   60 NAOKFM=F Big=F
 Integral buffers will be    131072 words long.
 Raffenetti 2 integral format.
 Two-electron integral symmetry is turned on.
 One-electron integrals computed using PRISM.
 NBasis=   491 RedAO= T EigKep=  2.33D-06  NBF=   491
 NBsUse=   491 1.00D-06 EigRej= -1.00D+00 NBFU=   491
 ExpMin= 3.60D-02 ExpMax= 1.14D+04 ExpMxC= 1.72D+03 IAcc=3 IRadAn=         5 AccDes= 0.00D+00
 Harris functional with IExCor=  402 and IRadAn=       5 diagonalized for initial guess.
 HarFok:  IExCor=  402 AccDes= 0.00D+00 IRadAn=         5 IDoV= 1 UseB2=F ITyADJ=14
 ICtDFT=  3500011 ScaDFX=  1.000000  1.000000  1.000000  1.000000
 FoFCou: FMM=F IPFlag=           0 FMFlag=      100000 FMFlg1=           0
         NFxFlg=           0 DoJE=T BraDBF=F KetDBF=T FulRan=T
         wScrn=  0.000000 ICntrl=     500 IOpCl=  0 I1Cent=   200000004 NGrid=           0
         NMat0=    1 NMatS0=      1 NMatT0=    0 NMatD0=    1 NMtDS0=    0 NMtDT0=    0
 Petite list used in FoFCou.
 Keep R1 ints in memory in canonical form, NReq=7363409475.
 Requested convergence on RMS density matrix=1.00D-08 within 128 cycles.
 Requested convergence on MAX density matrix=1.00D-06.
 Requested convergence on             energy=1.00D-06.
 No special actions if energy rises.
 SCF Done:  E(RB3LYP) =  -1716.21166114     A.U. after   17 cycles
            NFock= 17  Conv=0.39D-08     -V/T= 2.0019

 **********************************************************************

            Population analysis using the SCF density.

 **********************************************************************

 Orbital symmetries:
       Occupied  (A) (A) (A) (A) (A) (A) (A) (A) (A) (A) (A) (A)
                 (A) (A) (A) (A) (A) (A) (A) (A) (A) (A) (A) (A)
                 (A) (A) (A) (A) (A) (A) (A) (A) (A) (A) (A) (A)
                 (A) (A) (A) (A) (A) (A) (A) (A) (A) (A) (A) (A)
                 (A) (A) (A) (A) (A) (A) (A) (A) (A) (A) (A) (A)
                 (A) (A) (A) (A) (A) (A) (A) (A) (A) (A) (A) (A)
                 (A) (A) (A) (A) (A) (A) (A) (A) (A) (A) (A) (A)
                 (A) (A) (A) (A)
       Virtual   (A) (A) (A) (A) (A) (A) (A) (A) (A) (A) (A) (A)
                 (A) (A) (A) (A) (A) (A) (A) (A) (A) (A) (A) (A)
                 (A) (A) (A) (A) (A) (A) (A) (A) (A) (A) (A) (A)
                 (A) (A) (A) (A) (A) (A) (A) (A) (A) (A) (A) (A)
                 (A) (A) (A) (A) (A) (A) (A) (A) (A) (A) (A) (A)
                 (A) (A) (A) (A) (A) (A) (A) (A) (A) (A) (A) (A)
                 (A) (A) (A) (A) (A) (A) (A) (A) (A) (A) (A) (A)
                 (A) (A) (A) (A) (A) (A) (A) (A) (A) (A) (A) (A)
                 (A) (A) (A) (A) (A) (A) (A) (A) (A) (A) (A) (A)
                 (A) (A) (A) (A) (A) (A) (A) (A) (A) (A) (A) (A)
                 (A) (A) (A) (A) (A) (A) (A) (A) (A) (A) (A) (A)
                 (A) (A) (A) (A) (A) (A) (A) (A) (A) (A) (A) (A)
                 (A) (A) (A) (A) (A) (A) (A) (A) (A) (A) (A) (A)
                 (A) (A) (A) (A) (A) (A) (A) (A) (A) (A) (A) (A)
                 (A) (A) (A) (A) (A) (A) (A) (A) (A) (A) (A) (A)
                 (A) (A) (A) (A) (A) (A) (A) (A) (A) (A) (A) (A)
                 (A) (A) (A) (A) (A) (A) (A) (A) (A) (A) (A) (A)
                 (A) (A) (A) (A) (A) (A) (A) (A) (A) (A) (A) (A)
                 (A) (A) (A) (A) (A) (A) (A) (A) (A) (A) (A) (A)
                 (A) (A) (A) (A) (A) (A) (A) (A) (A) (A) (A) (A)
                 (A) (A) (A) (A) (A) (A) (A) (A) (A) (A) (A) (A)
                 (A) (A) (A) (A) (A) (A) (A) (A) (A) (A) (A) (A)
                 (A) (A) (A) (A) (A) (A) (A) (A) (A) (A) (A) (A)
                 (A) (A) (A) (A) (A) (A) (A) (A) (A) (A) (A) (A)
                 (A) (A) (A) (A) (A) (A) (A) (A) (A) (A) (A) (A)
                 (A) (A) (A) (A) (A) (A) (A) (A) (A) (A) (A) (A)
                 (A) (A) (A) (A) (A) (A) (A) (A) (A) (A) (A) (A)
                 (A) (A) (A) (A) (A) (A) (A) (A) (A) (A) (A) (A)
                 (A) (A) (A) (A) (A) (A) (A) (A) (A) (A) (A) (A)
                 (A) (A) (A) (A) (A) (A) (A) (A) (A) (A) (A) (A)
                 (A) (A) (A) (A) (A) (A) (A) (A) (A) (A) (A) (A)
                 (A) (A) (A) (A) (A) (A) (A) (A) (A) (A) (A) (A)
                 (A) (A) (A) (A) (A) (A) (A) (A) (A) (A) (A) (A)
                 (A) (A) (A) (A) (A) (A) (A)
 The electronic state is 1-A.
 Alpha  occ. eigenvalues --  -24.75674 -24.75358 -24.75357 -24.75351 -24.75340
 Alpha  occ. eigenvalues --  -24.75328 -24.75324 -24.75318 -24.75171 -24.75159
 Alpha  occ. eigenvalues --  -24.75123 -24.74548 -24.74485 -19.22070 -19.17209
 Alpha  occ. eigenvalues --  -10.47335 -10.41998 -10.41953 -10.41897 -10.41758
 Alpha  occ. eigenvalues --  -10.41682 -10.36916  -1.39629  -1.37373  -1.35766
 Alpha  occ. eigenvalues --   -1.34515  -1.34504  -1.32935  -1.29433  -1.28829
 Alpha  occ. eigenvalues --   -1.28737  -1.27894  -1.27307  -1.27194  -1.26275
 Alpha  occ. eigenvalues --   -1.16421  -1.07239  -0.87738  -0.86152  -0.83349
 Alpha  occ. eigenvalues --   -0.78975  -0.74058  -0.71327  -0.69369  -0.68182
 Alpha  occ. eigenvalues --   -0.67470  -0.66449  -0.66026  -0.65576  -0.65294
 Alpha  occ. eigenvalues --   -0.63768  -0.63712  -0.63538  -0.62041  -0.61005
 Alpha  occ. eigenvalues --   -0.60287  -0.59419  -0.54191  -0.53598  -0.53468
 Alpha  occ. eigenvalues --   -0.52786  -0.52644  -0.52511  -0.52095  -0.51794
 Alpha  occ. eigenvalues --   -0.51255  -0.51170  -0.49795  -0.49552  -0.48927
 Alpha  occ. eigenvalues --   -0.48405  -0.48098  -0.47802  -0.47226  -0.46966
 Alpha  occ. eigenvalues --   -0.46622  -0.46509  -0.45926  -0.45801  -0.45606
 Alpha  occ. eigenvalues --   -0.45362  -0.45261  -0.45147  -0.44051  -0.41271
 Alpha  occ. eigenvalues --   -0.37555  -0.37346  -0.33457
 Alpha virt. eigenvalues --   -0.08288  -0.02718  -0.01791  -0.01384   0.01411
 Alpha virt. eigenvalues --    0.01577   0.02938   0.03785   0.04117   0.04696
 Alpha virt. eigenvalues --    0.05648   0.06097   0.06459   0.06706   0.07152
 Alpha virt. eigenvalues --    0.07687   0.08029   0.08668   0.08964   0.09363
 Alpha virt. eigenvalues --    0.09446   0.09615   0.10405   0.11487   0.12598
 Alpha virt. eigenvalues --    0.12841   0.13227   0.13750   0.14236   0.15024
 Alpha virt. eigenvalues --    0.15883   0.16478   0.18358   0.18641   0.19300
 Alpha virt. eigenvalues --    0.19589   0.19832   0.20142   0.20488   0.21147
 Alpha virt. eigenvalues --    0.21881   0.22061   0.22388   0.22480   0.23087
 Alpha virt. eigenvalues --    0.23597   0.24246   0.24307   0.24614   0.24728
 Alpha virt. eigenvalues --    0.24977   0.25121   0.25515   0.25660   0.26018
 Alpha virt. eigenvalues --    0.26207   0.26309   0.26844   0.27823   0.28001
 Alpha virt. eigenvalues --    0.28306   0.28814   0.29933   0.30334   0.30628
 Alpha virt. eigenvalues --    0.31130   0.31544   0.31750   0.32267   0.32392
 Alpha virt. eigenvalues --    0.33173   0.33635   0.34056   0.34630   0.34888
 Alpha virt. eigenvalues --    0.34948   0.35453   0.35745   0.36391   0.37420
 Alpha virt. eigenvalues --    0.37804   0.37956   0.38483   0.38521   0.38668
 Alpha virt. eigenvalues --    0.39505   0.39618   0.40533   0.40739   0.41108
 Alpha virt. eigenvalues --    0.41823   0.43015   0.43842   0.44163   0.44504
 Alpha virt. eigenvalues --    0.44752   0.45733   0.45910   0.47104   0.48343
 Alpha virt. eigenvalues --    0.49034   0.49150   0.50053   0.51161   0.51969
 Alpha virt. eigenvalues --    0.52495   0.53485   0.56412   0.56815   0.57033
 Alpha virt. eigenvalues --    0.58145   0.58328   0.59152   0.60356   0.62256
 Alpha virt. eigenvalues --    0.63479   0.64805   0.65242   0.66056   0.66098
 Alpha virt. eigenvalues --    0.67630   0.67890   0.69420   0.70712   0.71785
 Alpha virt. eigenvalues --    0.72776   0.73217   0.73755   0.74625   0.77673
 Alpha virt. eigenvalues --    0.78920   0.81555   0.84523   0.85641   0.91007
 Alpha virt. eigenvalues --    0.94313   0.96478   1.01224   1.02405   1.04517
 Alpha virt. eigenvalues --    1.05915   1.09359   1.11215   1.11837   1.13781
 Alpha virt. eigenvalues --    1.13945   1.15056   1.17362   1.18327   1.20196
 Alpha virt. eigenvalues --    1.21506   1.24341   1.25975   1.27254   1.28283
 Alpha virt. eigenvalues --    1.29693   1.34058   1.35219   1.36228   1.36696
 Alpha virt. eigenvalues --    1.37593   1.37858   1.38374   1.39070   1.39599
 Alpha virt. eigenvalues --    1.40015   1.40152   1.41330   1.41703   1.42591
 Alpha virt. eigenvalues --    1.43271   1.43672   1.43926   1.44244   1.44589
 Alpha virt. eigenvalues --    1.45007   1.45218   1.46146   1.46724   1.46973
 Alpha virt. eigenvalues --    1.47496   1.48331   1.48822   1.49035   1.49618
 Alpha virt. eigenvalues --    1.50081   1.51913   1.52575   1.52620   1.53677
 Alpha virt. eigenvalues --    1.54331   1.54743   1.55470   1.56932   1.58086
 Alpha virt. eigenvalues --    1.58478   1.58941   1.59663   1.60602   1.61462
 Alpha virt. eigenvalues --    1.63961   1.64728   1.66730   1.67313   1.68239
 Alpha virt. eigenvalues --    1.71678   1.72714   1.73839   1.74520   1.79751
 Alpha virt. eigenvalues --    1.81289   1.82227   1.83463   1.87020   1.87946
 Alpha virt. eigenvalues --    1.91554   1.92172   1.93806   1.94396   1.97098
 Alpha virt. eigenvalues --    1.98355   2.00283   2.02113   2.03277   2.03846
 Alpha virt. eigenvalues --    2.06660   2.07636   2.08542   2.10439   2.12981
 Alpha virt. eigenvalues --    2.16043   2.21103   2.24551   2.24903   2.26133
 Alpha virt. eigenvalues --    2.27992   2.29500   2.42540   2.43465   2.54556
 Alpha virt. eigenvalues --    2.62372   2.79302   2.81119   2.84734   2.86346
 Alpha virt. eigenvalues --    2.89685   2.89962   2.90682   2.91686   2.93481
 Alpha virt. eigenvalues --    2.94143   2.95563   2.98326   2.99898   3.01763
 Alpha virt. eigenvalues --    3.03740   3.05151   3.09073   3.13748   3.16860
 Alpha virt. eigenvalues --    3.20089   3.31485   3.32485   3.42822   3.47094
 Alpha virt. eigenvalues --    3.51145   3.55494   3.56955   3.66817   3.70277
 Alpha virt. eigenvalues --    3.70453   3.70632   3.71001   3.71508   3.71821
 Alpha virt. eigenvalues --    3.71889   3.72168   3.72621   3.72952   3.73276
 Alpha virt. eigenvalues --    3.73980   3.74595   3.74931   3.75848   3.76440
 Alpha virt. eigenvalues --    3.77101   3.77270   3.77685   3.77858   3.78741
 Alpha virt. eigenvalues --    3.78961   3.79478   3.79509   3.80945   3.81171
 Alpha virt. eigenvalues --    3.82661   3.83531   3.83832   3.85054   3.85854
 Alpha virt. eigenvalues --    3.87001   3.88800   3.92345   3.93793   3.95298
 Alpha virt. eigenvalues --    3.99481   4.04693   4.06350   4.08909   4.10871
 Alpha virt. eigenvalues --    4.12739   4.14446   4.14910   4.16365   4.16691
 Alpha virt. eigenvalues --    4.19256   4.20121   4.21869   4.22805   4.23397
 Alpha virt. eigenvalues --    4.24861   4.27187   4.38912   4.56860   4.73602
 Alpha virt. eigenvalues --    4.80132   4.84311   4.86144   4.87087   4.89764
 Alpha virt. eigenvalues --    4.90873   4.93113   4.94603   4.94784   4.96786
 Alpha virt. eigenvalues --    4.98948   4.99953   5.03310   5.13387   5.34710
 Alpha virt. eigenvalues --    5.54009   5.80453   6.23947   6.25277   6.30316
 Alpha virt. eigenvalues --    6.30689   6.30892   6.32632   6.32814   6.33666
 Alpha virt. eigenvalues --    6.33908   6.33983   6.35231   6.35683   6.35962
 Alpha virt. eigenvalues --    6.36745   6.37254   6.38249   6.40658   6.41415
 Alpha virt. eigenvalues --    6.42761   6.44803   6.45167   6.47296   6.47462
 Alpha virt. eigenvalues --    6.48354   6.50761   6.53467   6.55001   6.55203
 Alpha virt. eigenvalues --    6.55615   6.59769   6.66095   6.66382   6.68405
 Alpha virt. eigenvalues --    6.72521   6.72857   6.80395   6.80479   6.88550
 Alpha virt. eigenvalues --    6.91890  23.45404  23.54552  23.60426  23.62296
 Alpha virt. eigenvalues --   23.64451  23.64637  23.74786  49.83521  49.96401
 Alpha virt. eigenvalues --   66.71621  66.72013  66.73199  66.75264  66.75391
 Alpha virt. eigenvalues --   66.75831  66.76601  66.79260  66.79735  66.80776
 Alpha virt. eigenvalues --   66.83446  66.84942  66.85286
          Condensed to atoms (all electrons):
               1          2          3          4          5          6
     1  F    8.949478  -0.041419  -0.023523   0.275680   0.000057   0.013321
     2  F   -0.041419   9.014130  -0.041589   0.161800   0.012613   0.012584
     3  F   -0.023523  -0.041589   8.948216   0.270154   0.013255   0.000156
     4  C    0.275680   0.161800   0.270154   8.652792  -0.200831  -0.191944
     5  F    0.000057   0.012613   0.013255  -0.200831   8.946245  -0.029865
     6  F    0.013321   0.012584   0.000156  -0.191944  -0.029865   8.945259
     7  C   -0.171635  -0.283670  -0.157959  -2.013121   0.442448   0.426168
     8  F   -0.000225  -0.000002   0.000015  -0.014234  -0.007203   0.024347
     9  F    0.000040  -0.000001  -0.000236  -0.015187   0.024104  -0.006895
    10  F   -0.000181  -0.000005   0.000086   0.005734   0.000215  -0.000520
    11  F    0.000094  -0.000005  -0.000168   0.007268  -0.000537   0.000189
    12  F   -0.000003   0.000000   0.000003   0.000168   0.000094  -0.000143
    13  F    0.000004   0.000000  -0.000002   0.000567  -0.000147   0.000087
    14  F   -0.008095  -0.001303   0.018127   0.017368   0.012075   0.004657
    15  F    0.017974  -0.001353  -0.007876   0.026115   0.004807   0.011802
    16  C    0.054029   0.200987   0.038800   1.668685  -0.293343  -0.251713
    17  C   -0.006701   0.041426  -0.000542  -2.231016   0.099277   0.074576
    18  C    0.020074   0.011364   0.021635  -1.018020   0.021287   0.012777
    19  C    0.000659   0.000730   0.000301  -0.125412   0.009264   0.009819
    20  O   -0.000001   0.000000   0.000000   0.000042   0.000008  -0.000004
    21  C   -0.000031   0.000031   0.000086  -0.023425   0.001166   0.000092
    22  O    0.000000   0.000000   0.000000   0.000097  -0.000003   0.000004
    23  H    0.000000   0.000000   0.000000   0.000061  -0.000002  -0.000001
               7          8          9         10         11         12
     1  F   -0.171635  -0.000225   0.000040  -0.000181   0.000094  -0.000003
     2  F   -0.283670  -0.000002  -0.000001  -0.000005  -0.000005   0.000000
     3  F   -0.157959   0.000015  -0.000236   0.000086  -0.000168   0.000003
     4  C   -2.013121  -0.014234  -0.015187   0.005734   0.007268   0.000168
     5  F    0.442448  -0.007203   0.024104   0.000215  -0.000537   0.000094
     6  F    0.426168   0.024347  -0.006895  -0.000520   0.000189  -0.000143
     7  C   15.232406   0.017357   0.021010  -0.008757  -0.009544   0.010215
     8  F    0.017357   8.883207  -0.014849   0.009440   0.004609   0.023303
     9  F    0.021010  -0.014849   8.885868   0.005572   0.010026  -0.006418
    10  F   -0.008757   0.009440   0.005572   8.927017  -0.026160   0.014188
    11  F   -0.009544   0.004609   0.010026  -0.026160   8.911357  -0.000381
    12  F    0.010215   0.023303  -0.006418   0.014188  -0.000381   8.943591
    13  F    0.010272  -0.006038   0.023146  -0.000594   0.014754  -0.049626
    14  F   -0.294429   0.005924   0.010741  -0.005116   0.029929   0.000325
    15  F   -0.310972   0.011019   0.005994   0.029646  -0.005460  -0.000521
    16  C   -4.748248  -0.370979  -0.401072   0.047348   0.073566  -0.009428
    17  C    1.411584   0.790234   0.819128  -0.376606  -0.361003   0.050243
    18  C   -2.668096  -0.336656  -0.358291   0.695013   0.699354  -0.237099
    19  C   -0.875793   0.015717   0.030445  -0.300857  -0.316148   0.405188
    20  O    0.000782  -0.000411  -0.000298   0.022532  -0.001860   0.010983
    21  C   -0.111670  -0.012641  -0.009854  -0.004960  -0.028462  -0.103984
    22  O    0.000254   0.000042  -0.000279  -0.006619   0.019909  -0.004473
    23  H    0.000246  -0.000105   0.000046  -0.000217   0.000930   0.000546
              13         14         15         16         17         18
     1  F    0.000004  -0.008095   0.017974   0.054029  -0.006701   0.020074
     2  F    0.000000  -0.001303  -0.001353   0.200987   0.041426   0.011364
     3  F   -0.000002   0.018127  -0.007876   0.038800  -0.000542   0.021635
     4  C    0.000567   0.017368   0.026115   1.668685  -2.231016  -1.018020
     5  F   -0.000147   0.012075   0.004807  -0.293343   0.099277   0.021287
     6  F    0.000087   0.004657   0.011802  -0.251713   0.074576   0.012777
     7  C    0.010272  -0.294429  -0.310972  -4.748248   1.411584  -2.668096
     8  F   -0.006038   0.005924   0.011019  -0.370979   0.790234  -0.336656
     9  F    0.023146   0.010741   0.005994  -0.401072   0.819128  -0.358291
    10  F   -0.000594  -0.005116   0.029646   0.047348  -0.376606   0.695013
    11  F    0.014754   0.029929  -0.005460   0.073566  -0.361003   0.699354
    12  F   -0.049626   0.000325  -0.000521  -0.009428   0.050243  -0.237099
    13  F    8.957211  -0.000537   0.000336   0.019272   0.060350  -0.230655
    14  F   -0.000537   8.903272  -0.013294   0.619876  -0.338457   0.065622
    15  F    0.000336  -0.013294   8.905568   0.675713  -0.370404   0.050749
    16  C    0.019272   0.619876   0.675713  25.488080  -9.169754  -3.397388
    17  C    0.060350  -0.338457  -0.370404  -9.169754  25.380813  -8.575572
    18  C   -0.230655   0.065622   0.050749  -3.397388  -8.575572  24.340680
    19  C    0.357651  -0.002726   0.002890  -3.074307   1.155490  -3.742444
    20  O    0.014642   0.000108  -0.000219   0.000129   0.040656  -0.068804
    21  C   -0.132754   0.010766   0.004278  -1.135835  -2.177679   0.952076
    22  O    0.007589  -0.000157   0.000100   0.013073   0.019693  -0.045880
    23  H   -0.001124   0.000003  -0.000021   0.000312  -0.010236   0.023600
              19         20         21         22         23
     1  F    0.000659  -0.000001  -0.000031   0.000000   0.000000
     2  F    0.000730   0.000000   0.000031   0.000000   0.000000
     3  F    0.000301   0.000000   0.000086   0.000000   0.000000
     4  C   -0.125412   0.000042  -0.023425   0.000097   0.000061
     5  F    0.009264   0.000008   0.001166  -0.000003  -0.000002
     6  F    0.009819  -0.000004   0.000092   0.000004  -0.000001
     7  C   -0.875793   0.000782  -0.111670   0.000254   0.000246
     8  F    0.015717  -0.000411  -0.012641   0.000042  -0.000105
     9  F    0.030445  -0.000298  -0.009854  -0.000279   0.000046
    10  F   -0.300857   0.022532  -0.004960  -0.006619  -0.000217
    11  F   -0.316148  -0.001860  -0.028462   0.019909   0.000930
    12  F    0.405188   0.010983  -0.103984  -0.004473   0.000546
    13  F    0.357651   0.014642  -0.132754   0.007589  -0.001124
    14  F   -0.002726   0.000108   0.010766  -0.000157   0.000003
    15  F    0.002890  -0.000219   0.004278   0.000100  -0.000021
    16  C   -3.074307   0.000129  -1.135835   0.013073   0.000312
    17  C    1.155490   0.040656  -2.177679   0.019693  -0.010236
    18  C   -3.742444  -0.068804   0.952076  -0.045880   0.023600
    19  C   14.698323  -0.219687  -2.147976  -0.003238  -0.100795
    20  O   -0.219687   7.953211   0.300648  -0.145560   0.224320
    21  C   -2.147976   0.300648   9.898659   0.418175   0.098606
    22  O   -0.003238  -0.145560   0.418175   7.954417  -0.018229
    23  H   -0.100795   0.224320   0.098606  -0.018229   0.478318
 Mulliken charges:
               1
     1  F   -0.079595
     2  F   -0.086317
     3  F   -0.078939
     4  C    0.746661
     5  F   -0.054985
     6  F   -0.054753
     7  C    0.081151
     8  F   -0.021873
     9  F   -0.022740
    10  F   -0.026198
    11  F   -0.022258
    12  F   -0.046770
    13  F   -0.044402
    14  F   -0.034680
    15  F   -0.036871
    16  C   -0.047804
    17  C   -0.325502
    18  C   -0.235326
    19  C    0.222908
    20  O   -0.131219
    21  C    0.204686
    22  O   -0.208914
    23  H    0.303741
 Sum of Mulliken charges =   0.00000
 Mulliken charges with hydrogens summed into heavy atoms:
               1
     1  F   -0.079595
     2  F   -0.086317
     3  F   -0.078939
     4  C    0.746661
     5  F   -0.054985
     6  F   -0.054753
     7  C    0.081151
     8  F   -0.021873
     9  F   -0.022740
    10  F   -0.026198
    11  F   -0.022258
    12  F   -0.046770
    13  F   -0.044402
    14  F   -0.034680
    15  F   -0.036871
    16  C   -0.047804
    17  C   -0.325502
    18  C   -0.235326
    19  C    0.222908
    20  O    0.172522
    21  C    0.204686
    22  O   -0.208914
 Electronic spatial extent (au):  <R**2>=           6419.8973
 Charge=              0.0000 electrons
 Dipole moment (field-independent basis, Debye):
    X=              1.3545    Y=             -0.7981    Z=             -1.4306  Tot=              2.1257
 Quadrupole moment (field-independent basis, Debye-Ang):
   XX=           -107.7657   YY=           -119.2126   ZZ=           -123.6634
   XY=             -4.4408   XZ=             -8.5244   YZ=              2.9137
 Traceless Quadrupole moment (field-independent basis, Debye-Ang):
   XX=              9.1149   YY=             -2.3321   ZZ=             -6.7828
   XY=             -4.4408   XZ=             -8.5244   YZ=              2.9137
 Octapole moment (field-independent basis, Debye-Ang**2):
  XXX=             55.3686  YYY=             -1.1200  ZZZ=             -2.1791  XYY=             -1.9800
  XXY=            -25.7638  XXZ=            -48.9316  XZZ=            -23.5523  YZZ=              1.5758
  YYZ=             -4.5000  XYZ=             16.0053
 Hexadecapole moment (field-independent basis, Debye-Ang**3):
 XXXX=          -5171.9121 YYYY=           -692.7226 ZZZZ=           -573.7125 XXXY=           -128.3585
 XXXZ=           -279.3176 YYYX=              2.1379 YYYZ=              6.5050 ZZZX=            -12.2265
 ZZZY=              4.4611 XXYY=          -1024.2378 XXZZ=          -1102.6508 YYZZ=           -216.3265
 XXYZ=             87.8524 YYXZ=            -24.3431 ZZXY=              3.0451
 N-N= 2.403641700708D+03 E-N=-8.879359766456D+03  KE= 1.712994688369D+03

 **********************************************************************

            Electrostatic Properties Using The SCF Density

 **********************************************************************

       Atomic Center    1 is at  -3.699388 -1.138845 -1.052857
       Atomic Center    2 is at  -4.716014  0.404137 -0.044003
       Atomic Center    3 is at  -3.725050 -1.103299  1.041540
       Atomic Center    4 is at  -3.647045 -0.346590 -0.018004
       Atomic Center    5 is at  -2.378664  1.248954 -1.082666
       Atomic Center    6 is at  -2.403474  1.285702  1.020645
       Atomic Center    7 is at  -2.375742  0.465467 -0.016810
       Atomic Center    8 is at   0.213488  1.318349  1.044309
       Atomic Center    9 is at   0.237183  1.280330 -1.047964
       Atomic Center   10 is at   1.571257 -1.104916 -0.993299
       Atomic Center   11 is at   1.543008 -1.079423  1.092185
       Atomic Center   12 is at   2.851866  1.316881  1.104181
       Atomic Center   13 is at   2.873300  1.291901 -1.043807
       Atomic Center   14 is at  -1.075142 -1.093587  1.069418
       Atomic Center   15 is at  -1.049502 -1.127223 -1.020514
       Atomic Center   16 is at  -1.063465 -0.303546  0.011498
       Atomic Center   17 is at   0.230393  0.494023  0.012877
       Atomic Center   18 is at   1.534805 -0.281571  0.039376
       Atomic Center   19 is at   2.830046  0.502128  0.039442
       Atomic Center   20 is at   4.549794 -0.685953 -1.148087
       Atomic Center   21 is at   4.069600 -0.431871  0.083615
       Atomic Center   22 is at   4.579408 -0.913073  1.071152
       Atomic Center   23 is at   5.309021 -1.286672 -1.080984
 -----------------------------------------------------------------

              Electrostatic Properties (Atomic Units)

 -----------------------------------------------------------------
    Center     Electric         -------- Electric Field --------
               Potential          X             Y             Z
 -----------------------------------------------------------------
    1 Atom    -26.530036     -0.003883     -0.031261     -0.040585
    2 Atom    -26.526830     -0.042388      0.028148     -0.000992
    3 Atom    -26.530154     -0.004877     -0.029859      0.041529
    4 Atom    -14.470075      0.014837      0.008183      0.000074
    5 Atom    -26.529598     -0.000791      0.030723     -0.040002
    6 Atom    -26.529676     -0.001716      0.032089      0.038901
    7 Atom    -14.528330      0.002357     -0.016537      0.000335
    8 Atom    -26.531553     -0.000458      0.032212      0.039218
    9 Atom    -26.531419      0.000403      0.030798     -0.040319
   10 Atom    -26.529915      0.001127     -0.031866     -0.039376
   11 Atom    -26.531968      0.000481     -0.030958      0.040280
   12 Atom    -26.538490      0.002132      0.028984      0.037326
   13 Atom    -26.537861      0.002754      0.028422     -0.037763
   14 Atom    -26.529872     -0.000210     -0.030911      0.040369
   15 Atom    -26.529521      0.000730     -0.032195     -0.039312
   16 Atom    -14.527521     -0.000265      0.017450     -0.000197
   17 Atom    -14.527726     -0.000039     -0.017038      0.000334
   18 Atom    -14.530704     -0.000517      0.018303      0.000101
   19 Atom    -14.527942      0.002096     -0.016326      0.000535
   20 Atom    -22.275358     -0.015725      0.016708     -0.041463
   21 Atom    -14.581942     -0.003202      0.002609      0.003613
   22 Atom    -22.329252      0.020132     -0.018993      0.042682
   23 Atom     -0.911922      0.018091     -0.014375      0.004447
 -----------------------------------------------------------------
 -----------------------------------------------------
    Center         ---- Electric Field Gradient ----
                     XX            YY            ZZ
 -----------------------------------------------------
    1 Atom    -1785.242959  -1786.946019  -1787.824055
    2 Atom    -1788.454414  -1786.514649  -1785.288932
    3 Atom    -1785.260112  -1786.810566  -1787.950890
    4 Atom     -500.386165   -500.609986   -500.774559
    5 Atom    -1785.075394  -1787.025082  -1787.900170
    6 Atom    -1785.079561  -1787.178473  -1787.750928
    7 Atom     -500.414908   -500.864712   -501.235840
    8 Atom    -1785.025305  -1787.198056  -1787.683218
    9 Atom    -1785.018192  -1787.031899  -1787.832649
   10 Atom    -1785.062476  -1787.156821  -1787.621996
   11 Atom    -1785.076948  -1787.104745  -1787.777652
   12 Atom    -1785.174901  -1787.226894  -1788.043500
   13 Atom    -1785.175536  -1787.111383  -1788.129434
   14 Atom    -1785.024865  -1787.037087  -1787.803358
   15 Atom    -1785.020991  -1787.165422  -1787.658749
   16 Atom     -500.457601   -500.891752   -501.263321
   17 Atom     -500.444766   -500.870370   -501.238657
   18 Atom     -500.453164   -500.890565   -501.271520
   19 Atom     -500.366249   -500.803083   -501.163526
   20 Atom    -1237.260995  -1236.611186  -1237.061404
   21 Atom     -501.223090   -501.338988   -501.151922
   22 Atom    -1238.191259  -1238.863306  -1238.145637
   23 Atom       -1.871313     -1.715173     -1.499999
 -----------------------------------------------------
 -----------------------------------------------------
    Center         ---- Electric Field Gradient ----
                     XY            XZ            YZ
 -----------------------------------------------------
    1 Atom       -0.199522     -0.269552     -2.064342
    2 Atom        1.905511     -0.071817      0.044589
    3 Atom       -0.239703      0.341892      2.025454
    4 Atom        0.254666      0.000352      0.000085
    5 Atom        0.005395     -0.009031      2.129995
    6 Atom        0.058100      0.072941     -2.155416
    7 Atom        0.021403      0.009201     -0.005930
    8 Atom        0.038960      0.046773     -2.145491
    9 Atom       -0.012195      0.016396      2.119435
   10 Atom        0.121730      0.111851     -2.139706
   11 Atom        0.042688     -0.034126      2.138753
   12 Atom       -0.075599     -0.033879     -2.194410
   13 Atom       -0.130531      0.087714      2.169743
   14 Atom       -0.030618      0.038833      2.119204
   15 Atom        0.023711      0.028686     -2.138326
   16 Atom        0.001881      0.009671     -0.006702
   17 Atom       -0.003265      0.008496     -0.005785
   18 Atom        0.027990      0.009660     -0.008424
   19 Atom       -0.012541     -0.000144      0.003231
   20 Atom        1.003527      0.810195     -0.530520
   21 Atom       -0.281225      0.096179     -0.111855
   22 Atom       -0.811358     -0.969568      0.606933
   23 Atom        0.325697     -0.024142      0.022837
 -----------------------------------------------------
 -----------------------------------------------------
    Center         ---- Electric Field Gradient ----
                   ----       Eigenvalues       ----
 -----------------------------------------------------
    1 Atom    -1789.521781  -1785.277969  -1785.213284
    2 Atom    -1789.624320  -1785.346395  -1785.287280
    3 Atom    -1789.525720  -1785.280367  -1785.215480
    4 Atom     -500.776254   -500.774551   -500.219905
    5 Atom    -1789.637121  -1785.288166  -1785.075359
    6 Atom    -1789.640940  -1785.290452  -1785.077569
    7 Atom     -501.236046   -500.865619   -500.413795
    8 Atom    -1789.600607  -1785.281493  -1785.024478
    9 Atom    -1789.589286  -1785.275358  -1785.018097
   10 Atom    -1789.547755  -1785.238488  -1785.055050
   11 Atom    -1789.606891  -1785.276669  -1785.075785
   12 Atom    -1789.868448  -1785.408786  -1785.168060
   13 Atom    -1789.853860  -1785.401647  -1785.160846
   14 Atom    -1789.574319  -1785.266671  -1785.024320
   15 Atom    -1789.564896  -1785.259588  -1785.020679
   16 Atom     -501.263558   -500.891638   -500.457478
   17 Atom     -501.238838   -500.870307   -500.444649
   18 Atom     -501.271836   -500.892134   -500.451279
   19 Atom     -501.163555   -500.803414   -500.365889
   20 Atom    -1238.599516  -1236.455843  -1235.878227
   21 Atom     -501.569938   -501.236735   -500.907327
   22 Atom    -1239.407705  -1239.065305  -1236.727192
   23 Atom       -2.129905     -1.498481     -1.458099
 -----------------------------------------------------
 -----------------------------------------------------
    Center         ---- Electric Field Gradient ----
                       ( tensor representation )
                   3XX-RR        3YY-RR        3ZZ-RR
 -----------------------------------------------------
    1 Atom        1.428052     -0.275008     -1.153044
    2 Atom       -1.701749      0.238016      1.463733
    3 Atom        1.413744     -0.136710     -1.277034
    4 Atom        0.204072     -0.019749     -0.184322
    5 Atom        1.591488     -0.358200     -1.233289
    6 Atom        1.590093     -0.508819     -1.081274
    7 Atom        0.423579     -0.026225     -0.397354
    8 Atom        1.610222     -0.562530     -1.047691
    9 Atom        1.609388     -0.404319     -1.205069
   10 Atom        1.551288     -0.543057     -1.008232
   11 Atom        1.576167     -0.451630     -1.124537
   12 Atom        1.640197     -0.411795     -1.228402
   13 Atom        1.629915     -0.305932     -1.323983
   14 Atom        1.596905     -0.415317     -1.181588
   15 Atom        1.594063     -0.550368     -1.043695
   16 Atom        0.413290     -0.020861     -0.392429
   17 Atom        0.406499     -0.019106     -0.387393
   18 Atom        0.418586     -0.018815     -0.399771
   19 Atom        0.411370     -0.025464     -0.385906
   20 Atom       -0.283133      0.366676     -0.083543
   21 Atom        0.014910     -0.100988      0.086078
   22 Atom        0.208808     -0.463238      0.254430
   23 Atom       -0.175818     -0.019678      0.195496
 -----------------------------------------------------
 -----------------------------------------------------
    Center         ---- Electric Field Gradient ----
                       ( tensor representation )
                   ----       Eigenvalues       ----
 -----------------------------------------------------
    1 Atom       -2.850770      1.393042      1.457727
    2 Atom       -2.871655      1.406269      1.465385
    3 Atom       -2.851864      1.393489      1.458375
    4 Atom       -0.186018     -0.184314      0.370332
    5 Atom       -2.970239      1.378716      1.591523
    6 Atom       -2.971286      1.379202      1.592085
    7 Atom       -0.397560     -0.027132      0.424691
    8 Atom       -2.965081      1.354033      1.611048
    9 Atom       -2.961705      1.352222      1.609483
   10 Atom       -2.933991      1.375277      1.558714
   11 Atom       -2.953776      1.376446      1.577330
   12 Atom       -3.053349      1.406312      1.647038
   13 Atom       -3.048409      1.403804      1.644605
   14 Atom       -2.952549      1.355099      1.597450
   15 Atom       -2.949842      1.355467      1.594375
   16 Atom       -0.392667     -0.020747      0.413414
   17 Atom       -0.387574     -0.019042      0.406616
   18 Atom       -0.400086     -0.020385      0.420471
   19 Atom       -0.385935     -0.025795      0.411730
   20 Atom       -1.621654      0.522019      1.099635
   21 Atom       -0.331938      0.001265      0.330673
   22 Atom       -1.007638     -0.665238      1.672876
   23 Atom       -0.434410      0.197014      0.237396
 -----------------------------------------------------
 Calling FoFJK, ICntrl=      2127 FMM=F ISym2X=0 I1Cent= 0 IOpClX= 0 NMat=1 NMatS=1 NMatT=0.
 ***** Axes restored to original set *****
 -------------------------------------------------------------------
 Center     Atomic                   Forces (Hartrees/Bohr)
 Number     Number              X              Y              Z
 -------------------------------------------------------------------
      1        9           0.035224824   -0.022785588    0.000800647
      2        9           0.003427041    0.032687988    0.013480402
      3        9          -0.031132997   -0.003952877   -0.027570639
      4        6           0.006306250   -0.004244480   -0.017757968
      5        9           0.031068253    0.002839835    0.020638617
      6        9          -0.030757729    0.020192677   -0.005940886
      7        6          -0.009756999    0.006744544    0.026980400
      8        9          -0.036687831    0.017790266   -0.004187028
      9        9           0.032496481   -0.001316512    0.025687840
     10        9           0.038381479   -0.020142917    0.005120058
     11        9          -0.033610608    0.000866360   -0.024427024
     12        9          -0.014848016    0.000417112   -0.001339038
     13        9           0.009789222   -0.004552588    0.009362438
     14        9          -0.033241152    0.001023761   -0.026013379
     15        9           0.037729975   -0.019126641    0.004303159
     16        6           0.004153865   -0.015067653   -0.020357171
     17        6          -0.003502445    0.017271879    0.019338621
     18        6           0.003643253   -0.010917824   -0.018829884
     19        6          -0.010798752    0.002438731    0.019704120
     20        8           0.006768112    0.013482448    0.002917826
     21        6          -0.014377151   -0.041562716   -0.006730919
     22        8           0.013016251    0.024946696    0.006505994
     23        1          -0.003291330    0.002967501   -0.001686184
 -------------------------------------------------------------------
 Cartesian Forces:  Max     0.041562716 RMS     0.019132659

 GradGradGradGradGradGradGradGradGradGradGradGradGradGradGradGradGradGrad
 Berny optimization.
 FormGI is forming the generalized inverse of G from B-inverse, IUseBI=4.
 GSVD:  received Info=                   1 from GESDD.
 Internal  Forces:  Max     0.041478277 RMS     0.015018598
 Search for a local minimum.
 Step number   1 out of a maximum of  125
 All quantities printed in internal units (Hartrees-Bohrs-Radians)
 Mixed Optimization -- RFO/linear search
 Second derivative matrix not updated -- first step.
 ITU=  0
     Eigenvalues ---    0.00230   0.00485   0.00502   0.00530   0.00582
     Eigenvalues ---    0.00653   0.00724   0.02404   0.04646   0.04663
     Eigenvalues ---    0.04719   0.04862   0.06279   0.06920   0.06943
     Eigenvalues ---    0.06948   0.07012   0.07893   0.08388   0.08644
     Eigenvalues ---    0.14175   0.14218   0.14371   0.14465   0.14549
     Eigenvalues ---    0.16000   0.19853   0.19908   0.20014   0.20077
     Eigenvalues ---    0.20124   0.24999   0.25000   0.25000   0.25000
     Eigenvalues ---    0.25000   0.25000   0.25000   0.25000   0.25000
     Eigenvalues ---    0.25000   0.27425   0.30245   0.30373   0.30579
     Eigenvalues ---    0.30964   0.31499   0.53283   0.55840   0.56918
     Eigenvalues ---    0.57008   0.61229   0.61233   0.61627   0.61683
     Eigenvalues ---    0.61808   0.61810   0.61813   0.61828   0.65418
     Eigenvalues ---    0.65999   0.66000   0.99452
 RFO step:  Lambda=-5.74258782D-02 EMin= 2.30000000D-03
 Linear search not attempted -- first point.
 Maximum step size (   0.300) exceeded in Quadratic search.
    -- Step size scaled by   0.859
 Iteration  1 RMS(Cart)=  0.04423979 RMS(Int)=  0.00087482
 Iteration  2 RMS(Cart)=  0.00155330 RMS(Int)=  0.00027045
 Iteration  3 RMS(Cart)=  0.00000101 RMS(Int)=  0.00027045
 Iteration  4 RMS(Cart)=  0.00000000 RMS(Int)=  0.00027045
 Variable       Old X    -DE/DX   Delta X   Delta X   Delta X     New X
                                 (Linear)    (Quad)   (Total)
    R1        2.46486   0.04114   0.00000   0.04927   0.04927   2.51414
    R2        2.46894   0.03286   0.00000   0.03968   0.03968   2.50862
    R3        2.46486   0.04094   0.00000   0.04903   0.04903   2.51389
    R4        2.85070   0.03285   0.00000   0.07578   0.07578   2.92649
    R5        2.49981   0.03547   0.00000   0.04550   0.04550   2.54531
    R6        2.49978   0.03534   0.00000   0.04534   0.04534   2.54511
    R7        2.87478   0.03089   0.00000   0.07375   0.07375   2.94852
    R8        2.49533   0.03890   0.00000   0.04947   0.04947   2.54481
    R9        2.49538   0.03942   0.00000   0.05014   0.05014   2.54552
   R10        2.49676   0.04148   0.00000   0.05290   0.05290   2.54966
   R11        2.49633   0.03907   0.00000   0.04979   0.04979   2.54612
   R12        2.53390   0.01220   0.00000   0.01670   0.01670   2.55060
   R13        2.53466   0.01254   0.00000   0.01719   0.01719   2.55185
   R14        2.49522   0.04014   0.00000   0.05103   0.05103   2.54626
   R15        2.49536   0.04049   0.00000   0.05149   0.05149   2.54686
   R16        2.87225   0.03160   0.00000   0.07517   0.07517   2.94742
   R17        2.86824   0.03184   0.00000   0.07532   0.07532   2.94356
   R18        2.86082   0.03071   0.00000   0.07189   0.07189   2.93271
   R19        2.93413  -0.00045   0.00000  -0.00117  -0.00117   2.93297
   R20        2.54393  -0.00687   0.00000  -0.00959  -0.00959   2.53434
   R21        1.83390  -0.00174   0.00000  -0.00254  -0.00254   1.83136
   R22        2.28859  -0.02282   0.00000  -0.01863  -0.01863   2.26995
    A1        1.87590   0.01166   0.00000   0.02634   0.02543   1.90132
    A2        1.86471   0.01098   0.00000   0.04378   0.04385   1.90857
    A3        1.94058  -0.00548   0.00000  -0.01190  -0.01231   1.92827
    A4        1.87611   0.01166   0.00000   0.02620   0.02527   1.90138
    A5        1.96083  -0.02074   0.00000  -0.06478  -0.06571   1.89512
    A6        1.94127  -0.00553   0.00000  -0.01213  -0.01254   1.92873
    A7        1.89265  -0.00377   0.00000  -0.01889  -0.01884   1.87381
    A8        1.89309  -0.00376   0.00000  -0.01890  -0.01885   1.87423
    A9        2.04302  -0.00473   0.00000  -0.02491  -0.02514   2.01787
   A10        1.83861   0.00632   0.00000   0.04471   0.04436   1.88297
   A11        1.89262   0.00360   0.00000   0.01299   0.01240   1.90503
   A12        1.89330   0.00357   0.00000   0.01282   0.01223   1.90552
   A13        1.88572   0.00160   0.00000   0.00129   0.00081   1.88652
   A14        1.88588   0.00155   0.00000   0.00123   0.00076   1.88664
   A15        2.05904  -0.00985   0.00000  -0.04229  -0.04286   2.01618
   A16        1.82662   0.00696   0.00000   0.05430   0.05424   1.88087
   A17        1.89734   0.00085   0.00000  -0.00138  -0.00180   1.89554
   A18        1.89550   0.00090   0.00000  -0.00111  -0.00152   1.89398
   A19        1.82953   0.00694   0.00000   0.05331   0.05327   1.88279
   A20        1.89377   0.00122   0.00000   0.00023  -0.00022   1.89355
   A21        1.89269   0.00071   0.00000  -0.00192  -0.00232   1.89037
   A22        1.89243   0.00112   0.00000   0.00024  -0.00018   1.89225
   A23        1.89008   0.00090   0.00000  -0.00092  -0.00130   1.88878
   A24        2.05269  -0.00906   0.00000  -0.03978  -0.04032   2.01237
   A25        1.81973   0.00796   0.00000   0.05687   0.05688   1.87661
   A26        1.90551   0.00026   0.00000  -0.00122  -0.00164   1.90387
   A27        1.87447  -0.00020   0.00000  -0.00472  -0.00501   1.86946
   A28        1.90485   0.00071   0.00000  -0.00024  -0.00072   1.90413
   A29        1.88317  -0.00078   0.00000  -0.00724  -0.00756   1.87561
   A30        2.06095  -0.00616   0.00000  -0.03189  -0.03239   2.02856
   A31        1.85771   0.00387   0.00000   0.02615   0.02580   1.88351
   A32        1.90552   0.00359   0.00000   0.01396   0.01366   1.91918
   A33        1.90703  -0.00463   0.00000  -0.02173  -0.02167   1.88536
   A34        1.90961   0.00229   0.00000   0.01064   0.01040   1.92002
   A35        1.92989  -0.00276   0.00000  -0.01403  -0.01398   1.91591
   A36        1.95156  -0.00201   0.00000  -0.01280  -0.01283   1.93874
   A37        1.90989  -0.00806   0.00000  -0.03184  -0.03184   1.87805
   A38        1.95226  -0.00728   0.00000  -0.02032  -0.02033   1.93192
   A39        2.21215  -0.01656   0.00000  -0.04626  -0.04627   2.16587
   A40        2.11873   0.02385   0.00000   0.06668   0.06666   2.18539
    D1        1.10923  -0.00503   0.00000  -0.03589  -0.03544   1.07378
    D2        3.09748  -0.00149   0.00000  -0.00286  -0.00277   3.09471
    D3       -1.03761  -0.00328   0.00000  -0.01952  -0.01925  -1.05686
    D4       -0.99406  -0.00178   0.00000  -0.01646  -0.01628  -1.01034
    D5        0.99420   0.00177   0.00000   0.01657   0.01639   1.01059
    D6       -3.14089  -0.00003   0.00000  -0.00010  -0.00009  -3.14099
    D7       -3.09809   0.00154   0.00000   0.00339   0.00329  -3.09479
    D8       -1.10984   0.00509   0.00000   0.03642   0.03597  -1.07387
    D9        1.03826   0.00330   0.00000   0.01975   0.01948   1.05774
   D10       -0.98266  -0.00480   0.00000  -0.03204  -0.03201  -1.01466
   D11        0.98453   0.00481   0.00000   0.03219   0.03215   1.01668
   D12        3.14135   0.00003   0.00000   0.00028   0.00028  -3.14156
   D13       -3.12951   0.00073   0.00000   0.00069   0.00094  -3.12857
   D14       -1.16232   0.01034   0.00000   0.06492   0.06509  -1.09723
   D15        0.99450   0.00556   0.00000   0.03301   0.03322   1.02772
   D16        1.16533  -0.01035   0.00000  -0.06498  -0.06515   1.10018
   D17        3.13252  -0.00074   0.00000  -0.00075  -0.00100   3.13152
   D18       -0.99384  -0.00552   0.00000  -0.03266  -0.03287  -1.02671
   D19        0.98795   0.00471   0.00000   0.03184   0.03180   1.01975
   D20       -0.98990  -0.00460   0.00000  -0.03078  -0.03073  -1.02063
   D21       -3.14023  -0.00005   0.00000  -0.00028  -0.00027  -3.14051
   D22       -1.16540   0.00925   0.00000   0.06322   0.06310  -1.10230
   D23        3.13994  -0.00006   0.00000   0.00060   0.00056   3.14050
   D24        0.98960   0.00449   0.00000   0.03111   0.03103   1.02063
   D25        3.13995   0.00019   0.00000   0.00077   0.00081   3.14076
   D26        1.16210  -0.00912   0.00000  -0.06185  -0.06173   1.10038
   D27       -0.98823  -0.00457   0.00000  -0.03135  -0.03126  -1.01950
   D28       -3.13371   0.00042   0.00000   0.00226   0.00232  -3.13138
   D29        1.17063  -0.00951   0.00000  -0.06425  -0.06416   1.10647
   D30       -0.98721  -0.00431   0.00000  -0.02950  -0.02941  -1.01662
   D31       -1.15759   0.00935   0.00000   0.06310   0.06301  -1.09459
   D32       -3.13644  -0.00059   0.00000  -0.00342  -0.00348  -3.13992
   D33        0.98891   0.00461   0.00000   0.03133   0.03127   1.02018
   D34        0.99393   0.00493   0.00000   0.03326   0.03323   1.02716
   D35       -0.98492  -0.00501   0.00000  -0.03326  -0.03326  -1.01817
   D36        3.14043   0.00019   0.00000   0.00149   0.00149  -3.14126
   D37       -3.10280  -0.00001   0.00000  -0.00409  -0.00385  -3.10665
   D38        1.15371  -0.00795   0.00000  -0.04926  -0.04929   1.10442
   D39       -0.99041  -0.00469   0.00000  -0.03022  -0.03014  -1.02055
   D40       -1.15028   0.00869   0.00000   0.05569   0.05571  -1.09457
   D41        3.10622   0.00074   0.00000   0.01051   0.01027   3.11649
   D42        0.96210   0.00401   0.00000   0.02956   0.02942   0.99153
   D43        1.01835   0.00434   0.00000   0.02505   0.02521   1.04355
   D44       -1.00833  -0.00361   0.00000  -0.02013  -0.02023  -1.02857
   D45        3.13073  -0.00034   0.00000  -0.00109  -0.00108   3.12965
   D46       -2.52061   0.00014   0.00000  -0.00303  -0.00304  -2.52365
   D47        0.63203  -0.00075   0.00000  -0.01418  -0.01399   0.61804
   D48       -0.48148   0.00047   0.00000   0.00763   0.00748  -0.47400
   D49        2.67116  -0.00042   0.00000  -0.00352  -0.00348   2.66768
   D50        1.65107   0.00005   0.00000   0.00242   0.00229   1.65336
   D51       -1.47948  -0.00084   0.00000  -0.00873  -0.00866  -1.48814
   D52       -3.11963  -0.00041   0.00000  -0.00629  -0.00658  -3.12621
   D53        0.01160   0.00014   0.00000   0.00340   0.00369   0.01529
         Item               Value     Threshold  Converged?
 Maximum Force            0.041478     0.000450     NO 
 RMS     Force            0.015019     0.000300     NO 
 Maximum Displacement     0.117115     0.001800     NO 
 RMS     Displacement     0.043430     0.001200     NO 
 Predicted change in Energy=-3.211770D-02
 GradGradGradGradGradGradGradGradGradGradGradGradGradGradGradGradGradGrad

                          Input orientation:                          
 ---------------------------------------------------------------------
 Center     Atomic      Atomic             Coordinates (Angstroms)
 Number     Number       Type             X           Y           Z
 ---------------------------------------------------------------------
      1          9           0        2.752043    2.490664   -2.226050
      2          9           0        1.949069    4.472264   -1.898694
      3          9           0        0.820019    3.033707   -3.053764
      4          6           0        1.638063    3.187048   -2.015990
      5          9           0        1.805304    2.961936    0.303203
      6          9           0       -0.133274    3.506180   -0.526320
      7          6           0        0.948488    2.724862   -0.708656
      8          9           0       -1.275887    1.525521    0.845277
      9          9           0        0.663001    0.982030    1.674090
     10          9           0        0.472097   -1.509415    0.499542
     11          9           0       -1.460811   -0.969571   -0.338778
     12          9           0       -2.433381   -0.501039    2.199538
     13          9           0       -0.489196   -1.028976    3.041049
     14          9           0       -0.330488    1.010128   -1.698382
     15          9           0        1.606680    0.466724   -0.866375
     16          6           0        0.511754    1.227455   -0.669333
     17          6           0       -0.182542    0.764414    0.648329
     18          6           0       -0.615042   -0.731608    0.682688
     19          6           0       -1.308622   -1.215327    1.984004
     20          8           0       -0.751181   -3.490857    2.419442
     21          6           0       -1.702897   -2.713063    1.882910
     22          8           0       -2.723927   -3.108735    1.389106
     23          1           0       -1.035108   -4.412117    2.320198
 ---------------------------------------------------------------------
                    Distance matrix (angstroms):
                    1          2          3          4          5
     1  F    0.000000
     2  F    2.163023   0.000000
     3  F    2.170881   2.162958   0.000000
     4  C    1.330424   1.327503   1.330295   0.000000
     5  F    2.741448   2.673970   3.499309   2.336087   0.000000
     6  F    3.499344   2.674487   2.742256   2.336363   2.177704
     7  C    2.368575   2.338968   2.368844   1.548629   1.346921
     8  F    5.156430   5.158781   4.676534   4.408925   3.442509
     9  F    4.674524   5.157567   5.156224   4.407896   2.665374
    10  F    5.350480   6.611616   5.778148   5.453819   4.670007
    11  F    5.769157   6.608646   5.347857   5.449178   5.151349
    12  F    7.444779   7.793274   7.118723   6.924544   5.792644
    13  F    7.115886   7.785233   7.440846   6.919084   5.356109
    14  F    3.460118   4.150047   2.693622   2.952126   3.518168
    15  F    2.693865   4.150574   3.463078   2.953432   2.762869
    16  C    3.006320   3.755794   3.007172   2.630981   2.372240
    17  C    4.455759   4.977876   4.456491   4.035140   2.983244
    18  C    5.493729   6.349684   5.495277   5.264524   4.432195
    19  C    6.924444   7.618175   6.925642   6.638058   5.474592
    20  O    8.344565   9.452458   8.659942   8.365163   7.256212
    21  C    7.988043   8.903164   7.985063   7.821429   6.856279
    22  O    8.626058   9.493055   8.368289   8.382036   7.651547
    23  H    9.091715  10.277967   9.368098   9.148534   8.155542
                    6          7          8          9         10
     6  F    0.000000
     7  C    1.346815   0.000000
     8  F    2.666431   2.966642   0.000000
     9  F    3.441976   2.965880   2.177522   0.000000
    10  F    5.155100   4.428972   3.519349   2.761033   0.000000
    11  F    4.672245   4.426101   2.767972   3.517238   2.174936
    12  F    5.364569   5.504640   2.698288   3.473207   3.514059
    13  F    5.781042   5.497137   3.459155   2.690776   2.759377
    14  F    2.764579   2.357043   2.762175   3.515876   3.438475
    15  F    3.518716   2.357388   3.515678   2.758629   2.656715
    16  C    2.372573   1.560292   2.361895   2.361090   2.976289
    17  C    2.983204   2.638938   1.346653   1.347029   2.370863
    18  C    4.433131   4.040748   2.357495   2.356443   1.349221
    19  C    5.475016   5.279209   2.968168   2.968454   2.336895
    20  O    7.616945   7.163032   5.283688   4.749966   3.018036
    21  C    6.851795   6.581572   4.384588   4.392584   2.844834
    22  O    7.357815   7.205421   4.885581   5.318539   3.682896
    23  H    8.462588   8.002817   6.122819   5.691911   3.743279
                   11         12         13         14         15
    11  F    0.000000
    12  F    2.758344   0.000000
    13  F    3.517213   2.183280   0.000000
    14  F    2.654311   4.679697   5.161913   0.000000
    15  F    3.427945   5.163185   4.679506   2.177187   0.000000
    16  C    2.971061   4.460037   4.456492   1.347421   1.347738
    17  C    2.369611   3.012290   3.005893   2.364174   2.363105
    18  C    1.347347   2.379150   2.380363   2.963801   2.961696
    19  C    2.340699   1.349720   1.350381   4.412411   4.410549
    20  O    3.803713   3.437611   2.552623   6.114927   5.658494
    21  C    2.834478   2.350938   2.377079   5.345214   5.350039
    22  O    3.026065   2.746142   3.471071   5.676810   6.051881
    23  H    4.370640   4.155269   3.501898   6.785736   6.398155
                   16         17         18         19         20
    16  C    0.000000
    17  C    1.559708   0.000000
    18  C    2.633545   1.557664   0.000000
    19  C    4.039945   2.640352   1.551922   0.000000
    20  O    5.779101   4.644085   3.263174   2.382936   0.000000
    21  C    5.190983   3.991055   2.559321   1.552059   1.341117
    22  O    5.788726   4.691340   3.255328   2.437619   2.258171
    23  H    6.567713   5.506223   4.050190   3.226035   0.969115
                   21         22         23
    21  C    0.000000
    22  O    1.201208   0.000000
    23  H    1.877218   2.327627   0.000000
 Stoichiometry    C7HF13O2
 Framework group  C1[X(C7HF13O2)]
 Deg. of freedom    63
 Full point group                 C1      NOp   1
 Largest Abelian subgroup         C1      NOp   1
 Largest concise Abelian subgroup C1      NOp   1
                         Standard orientation:                         
 ---------------------------------------------------------------------
 Center     Atomic      Atomic             Coordinates (Angstroms)
 Number     Number       Type             X           Y           Z
 ---------------------------------------------------------------------
      1          9           0       -3.754824   -1.141927   -1.088774
      2          9           0       -4.741459    0.473212   -0.041612
      3          9           0       -3.778455   -1.104532    1.081656
      4          6           0       -3.705556   -0.356556   -0.016023
      5          9           0       -2.422094    1.253575   -1.119430
      6          9           0       -2.444814    1.291465    1.057825
      7          6           0       -2.402636    0.480494   -0.016632
      8          9           0        0.221342    1.318602    1.084857
      9          9           0        0.243004    1.280579   -1.092225
     10          9           0        1.595424   -1.126015   -1.041539
     11          9           0        1.569152   -1.098576    1.133065
     12          9           0        2.919358    1.306682    1.121282
     13          9           0        2.933601    1.287080   -1.061864
     14          9           0       -1.085025   -1.114970    1.112105
     15          9           0       -1.061080   -1.150190   -1.064666
     16          6           0       -1.074777   -0.338368    0.011046
     17          6           0        0.236031    0.506895    0.010432
     18          6           0        1.558546   -0.315655    0.036586
     19          6           0        2.876249    0.504175    0.036907
     20          8           0        4.575822   -0.664874   -1.156055
     21          6           0        4.114923   -0.429958    0.081273
     22          8           0        4.586683   -0.875171    1.092277
     23          1           0        5.336108   -1.260665   -1.077424
 ---------------------------------------------------------------------
 Rotational constants (GHZ):      0.7371298      0.1555379      0.1526359
 Standard basis: 6-311++G(d,p) (5D, 7F)
 There are   513 symmetry adapted cartesian basis functions of A   symmetry.
 There are   491 symmetry adapted basis functions of A   symmetry.
   491 basis functions,   801 primitive gaussians,   513 cartesian basis functions
    88 alpha electrons       88 beta electrons
       nuclear repulsion energy      2367.7810332755 Hartrees.
 NAtoms=   23 NActive=   23 NUniq=   23 SFac= 1.00D+00 NAtFMM=   60 NAOKFM=F Big=F
 Integral buffers will be    131072 words long.
 Raffenetti 2 integral format.
 Two-electron integral symmetry is turned on.
 One-electron integrals computed using PRISM.
[...]
    15  F   -0.215884   0.008980   0.003037   0.017764  -0.001512  -0.000493
    16  C   -3.798703  -0.266831  -0.281040  -0.085502   0.138626   0.005906
    17  C    1.491557   0.539460   0.572385  -0.223297  -0.319885  -0.071209
    18  C   -1.541215  -0.233605  -0.259413   0.534005   0.546673  -0.114565
    19  C   -0.170078   0.108404  -0.049148  -0.198812  -0.279733   0.381629
    20  O    0.002007  -0.000524  -0.000800   0.016096   0.002082   0.008565
    21  C   -0.045779   0.017532  -0.010162   0.053370  -0.045120  -0.094275
    22  O   -0.000557  -0.000032  -0.000346  -0.010114   0.014615  -0.005036
    23  H    0.000331  -0.000096   0.000031   0.000271   0.000728   0.000599
              13         14         15         16         17         18
     1  F    0.000000  -0.004239   0.013314  -0.018537   0.044266  -0.005584
     2  F    0.000000   0.000137  -0.001987   0.112288   0.022769   0.003325
     3  F   -0.000001   0.012798  -0.001734  -0.032081   0.012538   0.012974
     4  C    0.000390   0.080619  -0.044063   0.911966  -1.091151  -0.265644
     5  F   -0.000063   0.008053   0.014048  -0.068851  -0.054427   0.003650
     6  F    0.000045   0.003291   0.008450  -0.268934   0.092615   0.078739
     7  C   -0.000698  -0.256405  -0.215884  -3.798703   1.491557  -1.541215
     8  F   -0.000192   0.015889   0.008980  -0.266831   0.539460  -0.233605
     9  F    0.012492   0.008478   0.003037  -0.281040   0.572385  -0.259413
    10  F    0.004183   0.000090   0.017764  -0.085502  -0.223297   0.534005
    11  F    0.010155   0.019586  -0.001512   0.138626  -0.319885   0.546673
    12  F   -0.050439  -0.000207  -0.000493   0.005906  -0.071209  -0.114565
    13  F    8.975467  -0.000485  -0.000205   0.071855   0.046029  -0.200285
    14  F   -0.000485   8.886716  -0.029685   0.559773  -0.202119  -0.079174
    15  F   -0.000205  -0.029685   8.903938   0.432714  -0.307291   0.159429
    16  C    0.071855   0.559773   0.432714  17.147391  -6.196870  -0.420576
    17  C    0.046029  -0.202119  -0.307291  -6.196870  18.615151  -6.730963
    18  C   -0.200285  -0.079174   0.159429  -0.420576  -6.730963  16.979161
    19  C    0.282712  -0.017059   0.052123  -1.488777   1.188164  -2.800123
    20  O    0.023765   0.000052  -0.000094   0.000619   0.037702  -0.080763
    21  C   -0.139768   0.004373   0.002821  -0.364019  -1.362135   0.538083
    22  O    0.007873  -0.000088   0.000060  -0.001989  -0.002697  -0.020248
    23  H   -0.001220   0.000024  -0.000038   0.001620  -0.009926   0.015950
              19         20         21         22         23
     1  F   -0.000761   0.000000  -0.000094   0.000000   0.000000
     2  F    0.000385   0.000000   0.000014   0.000000   0.000000
     3  F    0.001287   0.000000   0.000120   0.000000   0.000000
     4  C   -0.057958   0.000033  -0.008982  -0.000005   0.000039
     5  F    0.003030   0.000010   0.000921  -0.000003   0.000001
     6  F   -0.000702   0.000000   0.000206   0.000000   0.000000
     7  C   -0.170078   0.002007  -0.045779  -0.000557   0.000331
     8  F    0.108404  -0.000524   0.017532  -0.000032  -0.000096
     9  F   -0.049148  -0.000800  -0.010162  -0.000346   0.000031
    10  F   -0.198812   0.016096   0.053370  -0.010114   0.000271
    11  F   -0.279733   0.002082  -0.045120   0.014615   0.000728
    12  F    0.381629   0.008565  -0.094275  -0.005036   0.000599
    13  F    0.282712   0.023765  -0.139768   0.007873  -0.001220
    14  F   -0.017059   0.000052   0.004373  -0.000088   0.000024
    15  F    0.052123  -0.000094   0.002821   0.000060  -0.000038
    16  C   -1.488777   0.000619  -0.364019  -0.001989   0.001620
    17  C    1.188164   0.037702  -1.362135  -0.002697  -0.009926
    18  C   -2.800123  -0.080763   0.538083  -0.020248   0.015950
    19  C   11.375314  -0.196255  -2.008297  -0.080779  -0.079261
    20  O   -0.196255   7.956654   0.261722  -0.134075   0.218598
    21  C   -2.008297   0.261722   8.423373   0.503145   0.081836
    22  O   -0.080779  -0.134075   0.503145   7.945745  -0.013680
    23  H   -0.079261   0.218598   0.081836  -0.013680   0.484414
 Mulliken charges:
               1
     1  F   -0.080023
     2  F   -0.092405
     3  F   -0.063186
     4  C    0.606199
     5  F   -0.034577
     6  F   -0.042434
     7  C   -0.061315
     8  F   -0.006638
     9  F   -0.007059
    10  F   -0.013820
    11  F   -0.011133
    12  F   -0.035748
    13  F   -0.041610
    14  F   -0.010419
    15  F   -0.013690
    16  C   -0.090047
    17  C   -0.090669
    18  C   -0.119829
    19  C    0.034696
    20  O   -0.115395
    21  C    0.191115
    22  O   -0.201788
    23  H    0.299777
 Sum of Mulliken charges =   0.00000
 Mulliken charges with hydrogens summed into heavy atoms:
               1
     1  F   -0.080023
     2  F   -0.092405
     3  F   -0.063186
     4  C    0.606199
     5  F   -0.034577
     6  F   -0.042434
     7  C   -0.061315
     8  F   -0.006638
     9  F   -0.007059
    10  F   -0.013820
    11  F   -0.011133
    12  F   -0.035748
    13  F   -0.041610
    14  F   -0.010419
    15  F   -0.013690
    16  C   -0.090047
    17  C   -0.090669
    18  C   -0.119829
    19  C    0.034696
    20  O    0.184382
    21  C    0.191115
    22  O   -0.201788
 Electronic spatial extent (au):  <R**2>=           6554.7187
 Charge=              0.0000 electrons
 Dipole moment (field-independent basis, Debye):
    X=              1.7587    Y=              0.3816    Z=             -1.6123  Tot=              2.4162
 Quadrupole moment (field-independent basis, Debye-Ang):
   XX=           -105.7511   YY=           -124.9557   ZZ=           -119.6425
   XY=              3.0893   XZ=             -9.6710   YZ=              2.2545
 Traceless Quadrupole moment (field-independent basis, Debye-Ang):
   XX=             11.0320   YY=             -8.1726   ZZ=             -2.8594
   XY=              3.0893   XZ=             -9.6710   YZ=              2.2545
 Octapole moment (field-independent basis, Debye-Ang**2):
  XXX=             76.1801  YYY=              5.7413  ZZZ=             -3.4397  XYY=            -27.7246
  XXY=             14.7935  XXZ=            -52.9694  XZZ=              2.1396  YZZ=             -0.7118
  YYZ=              0.6038  XYZ=             10.0417
 Hexadecapole moment (field-independent basis, Debye-Ang**3):
 XXXX=          -5174.5198 YYYY=           -718.1993 ZZZZ=           -604.1486 XXXY=            111.1081
 XXXZ=           -312.4254 YYYX=             31.9839 YYYZ=              2.4473 ZZZX=            -22.1855
 ZZZY=              3.2615 XXYY=          -1179.2023 XXZZ=          -1003.7145 YYZZ=           -221.8440
 XXYZ=             50.4978 YYXZ=             -1.4043 ZZXY=             -3.5554
 N-N= 2.364512405019D+03 E-N=-8.800445508223D+03  KE= 1.711577530865D+03

 **********************************************************************

            Electrostatic Properties Using The SCF Density

 **********************************************************************

       Atomic Center    1 is at  -3.730114 -1.408047 -0.687737
       Atomic Center    2 is at  -4.724535  0.493342 -0.339870
       Atomic Center    3 is at  -3.861971 -0.593539  1.326555
       Atomic Center    4 is at  -3.705169 -0.284581  0.038078
       Atomic Center    5 is at  -2.397481  0.994904 -1.445688
       Atomic Center    6 is at  -2.336390  1.518979  0.686575
       Atomic Center    7 is at  -2.366398  0.494815 -0.194372
       Atomic Center    8 is at   0.277770  0.953031  1.400480
       Atomic Center    9 is at   0.198595  1.513262 -0.722411
       Atomic Center   10 is at   1.702706 -0.487106 -1.471418
       Atomic Center   11 is at   1.442085 -1.565911  0.422657
       Atomic Center   12 is at   2.906973  0.173515  1.758897
       Atomic Center   13 is at   2.829275  1.652508  0.139944
       Atomic Center   14 is at  -1.213279 -1.163601  1.058307
       Atomic Center   15 is at  -0.950658 -1.160493 -1.121704
       Atomic Center   16 is at  -1.070846 -0.375698 -0.028782
       Atomic Center   17 is at   0.241574  0.474520  0.139101
       Atomic Center   18 is at   1.555932 -0.341190 -0.131616
       Atomic Center   19 is at   2.860994  0.328693  0.420048
       Atomic Center   20 is at   4.620365  0.382086 -1.198842
       Atomic Center   21 is at   4.128205 -0.340263 -0.190490
       Atomic Center   22 is at   4.561476 -1.374550  0.224034
       Atomic Center   23 is at   5.392747 -0.085643 -1.554628
 -----------------------------------------------------------------

              Electrostatic Properties (Atomic Units)

 -----------------------------------------------------------------
    Center     Electric         -------- Electric Field --------
               Potential          X             Y             Z
 -----------------------------------------------------------------
    1 Atom    -26.525375     -0.002733     -0.038987     -0.024694
    2 Atom    -26.527413     -0.036412      0.025792     -0.012786
    3 Atom    -26.526537     -0.007085     -0.011039      0.044552
    4 Atom    -14.460021      0.016546      0.009427     -0.002684
    5 Atom    -26.527642     -0.001480      0.018328     -0.042208
    6 Atom    -26.526164      0.000454      0.035807      0.028729
    7 Atom    -14.516672     -0.000339     -0.019926      0.004764
    8 Atom    -26.527880      0.001064      0.017384      0.042313
    9 Atom    -26.527578     -0.000804      0.035945     -0.028118
   10 Atom    -26.528129      0.004142     -0.005819     -0.044398
   11 Atom    -26.529299     -0.002775     -0.042206      0.017949
   12 Atom    -26.540048      0.002459     -0.004898      0.045291
   13 Atom    -26.538106      0.000225      0.044644     -0.008222
   14 Atom    -26.525804     -0.004332     -0.027643      0.036207
   15 Atom    -26.525677      0.003678     -0.027558     -0.036278
   16 Atom    -14.514942      0.000477      0.020838      0.000172
   17 Atom    -14.516113      0.000276     -0.020087     -0.005299
   18 Atom    -14.520779      0.000368      0.018520      0.010397
   19 Atom    -14.528896      0.001055     -0.014593     -0.013637
   20 Atom    -22.269533     -0.014497      0.041349     -0.017933
   21 Atom    -14.584442     -0.009103      0.003764      0.006602
   22 Atom    -22.328091      0.018972     -0.046996      0.019897
   23 Atom     -0.907704      0.020095     -0.010942     -0.010101
 -----------------------------------------------------------------
 -----------------------------------------------------
    Center         ---- Electric Field Gradient ----
                     XX            YY            ZZ
 -----------------------------------------------------
    1 Atom    -1785.479169  -1788.647509  -1786.776632
    2 Atom    -1788.202535  -1786.932820  -1785.829827
    3 Atom    -1785.535203  -1785.743616  -1789.587263
    4 Atom     -500.383396   -500.666728   -500.780726
    5 Atom    -1785.266791  -1786.181880  -1789.291381
    6 Atom    -1785.285866  -1788.152016  -1787.293954
    7 Atom     -500.399944   -500.856213   -501.168588
    8 Atom    -1785.252411  -1786.113585  -1789.318101
    9 Atom    -1785.248835  -1788.207249  -1787.209049
   10 Atom    -1785.317152  -1785.530760  -1789.741792
   11 Atom    -1785.317135  -1789.239277  -1786.186587
   12 Atom    -1785.254128  -1785.502936  -1789.918294
   13 Atom    -1785.233188  -1789.761802  -1785.616930
   14 Atom    -1785.312296  -1787.101021  -1788.291378
   15 Atom    -1785.293190  -1787.073134  -1788.305275
   16 Atom     -500.436817   -500.844915   -501.194068
   17 Atom     -500.425671   -500.861325   -501.171449
   18 Atom     -500.460951   -500.963330   -501.156019
   19 Atom     -500.355161   -500.977791   -500.982031
   20 Atom    -1237.454069  -1236.538104  -1237.389757
   21 Atom     -501.211304   -501.106969   -501.346754
   22 Atom    -1237.869191  -1238.974296  -1238.018598
   23 Atom       -1.890943     -1.629796     -1.578179
 -----------------------------------------------------
 -----------------------------------------------------
    Center         ---- Electric Field Gradient ----
                     XY            XZ            YZ
 -----------------------------------------------------
    1 Atom       -0.130914     -0.104048     -1.989913
    2 Atom        1.943406     -0.962895      0.676064
    3 Atom       -0.145719      0.600387      1.016949
    4 Atom        0.229530     -0.066833     -0.040467
    5 Atom        0.038341     -0.121302      1.601484
    6 Atom       -0.064193     -0.061706     -2.183720
    7 Atom       -0.005782     -0.025938     -0.085164
    8 Atom       -0.050561     -0.120535     -1.541678
    9 Atom        0.121456     -0.097660      2.164918
   10 Atom        0.076354      0.535219     -0.560096
   11 Atom       -0.338700      0.183865      1.590368
   12 Atom       -0.034059     -0.195637      0.424325
   13 Atom        0.080899     -0.073229      0.799835
   14 Atom       -0.298789      0.396500      2.113098
   15 Atom        0.228419      0.343459     -2.120633
   16 Atom       -0.002161      0.099813     -0.000411
   17 Atom        0.003980     -0.035097      0.089846
   18 Atom       -0.024071      0.103284      0.152380
   19 Atom        0.000839     -0.052746      0.179378
   20 Atom        0.125381      1.244667      0.297419
   21 Atom       -0.258693     -0.130639     -0.112769
   22 Atom       -0.058642     -1.249771     -0.196812
   23 Atom        0.246710      0.208327     -0.098765
 -----------------------------------------------------
 -----------------------------------------------------
    Center         ---- Electric Field Gradient ----
                   ----       Eigenvalues       ----
 -----------------------------------------------------
    1 Atom    -1789.917119  -1785.519893  -1785.466298
    2 Atom    -1789.948189  -1785.531275  -1785.485717
    3 Atom    -1789.926658  -1785.491376  -1785.448048
    4 Atom     -500.796499   -500.790375   -500.243975
    5 Atom    -1789.972079  -1785.505180  -1785.262793
    6 Atom    -1789.950142  -1785.497740  -1785.283955
    7 Atom     -501.191189   -500.834505   -500.399051
    8 Atom    -1789.942996  -1785.492346  -1785.248756
    9 Atom    -1789.935037  -1785.486447  -1785.243649
   10 Atom    -1789.879079  -1785.457729  -1785.252897
   11 Atom    -1789.949028  -1785.514337  -1785.279634
   12 Atom    -1789.966488  -1785.474562  -1785.234309
   13 Atom    -1789.912637  -1785.481028  -1785.218255
   14 Atom    -1789.944726  -1785.500887  -1785.259082
   15 Atom    -1789.934056  -1785.483324  -1785.254219
   16 Atom     -501.207004   -500.844927   -500.423870
   17 Atom     -501.197179   -500.837243   -500.424023
   18 Atom     -501.253148   -500.881232   -500.445921
   19 Atom     -501.161112   -500.803462   -500.350409
   20 Atom    -1238.673603  -1236.702754  -1236.005574
   21 Atom     -501.561594   -501.208249   -500.895184
   22 Atom    -1239.300219  -1238.873718  -1236.688148
   23 Atom       -2.134283     -1.503478     -1.461155
 -----------------------------------------------------
 -----------------------------------------------------
    Center         ---- Electric Field Gradient ----
                       ( tensor representation )
                   3XX-RR        3YY-RR        3ZZ-RR
 -----------------------------------------------------
    1 Atom        1.488601     -1.679739      0.191138
    2 Atom       -1.214141      0.055574      1.158567
    3 Atom        1.420158      1.211745     -2.631902
    4 Atom        0.226887     -0.056445     -0.170443
    5 Atom        1.646560      0.731471     -2.378030
    6 Atom        1.624747     -1.241404     -0.383342
    7 Atom        0.408304     -0.047965     -0.360339
    8 Atom        1.642288      0.781114     -2.423402
    9 Atom        1.639543     -1.318871     -0.320672
   10 Atom        1.546082      1.332475     -2.878557
   11 Atom        1.597198     -2.324944      0.727746
   12 Atom        1.637658      1.388850     -3.026507
   13 Atom        1.637452     -2.891162      1.253710
   14 Atom        1.589269     -0.199456     -1.389813
   15 Atom        1.597343     -0.182601     -1.414742
   16 Atom        0.388450     -0.019648     -0.368802
   17 Atom        0.393810     -0.041843     -0.351968
   18 Atom        0.399149     -0.103230     -0.295919
   19 Atom        0.416500     -0.206130     -0.210370
   20 Atom       -0.326758      0.589206     -0.262447
   21 Atom        0.010371      0.114707     -0.125078
   22 Atom        0.418171     -0.686934      0.268763
   23 Atom       -0.191304      0.069843      0.121460
 -----------------------------------------------------
 -----------------------------------------------------
    Center         ---- Electric Field Gradient ----
                       ( tensor representation )
                   ----       Eigenvalues       ----
 -----------------------------------------------------
    1 Atom       -2.949349      1.447877      1.501473
    2 Atom       -2.959795      1.457119      1.502677
    3 Atom       -2.971297      1.463985      1.507313
    4 Atom       -0.186216     -0.180092      0.366308
    5 Atom       -3.058729      1.408171      1.650558
    6 Atom       -3.039530      1.412873      1.626657
    7 Atom       -0.382941     -0.026257      0.409197
    8 Atom       -3.048297      1.402353      1.645943
    9 Atom       -3.046659      1.401931      1.644729
   10 Atom       -3.015844      1.405506      1.610338
   11 Atom       -3.034695      1.399996      1.634699
   12 Atom       -3.074702      1.417224      1.657477
   13 Atom       -3.041997      1.389612      1.652385
   14 Atom       -3.043161      1.400678      1.642483
   15 Atom       -3.043523      1.407209      1.636314
   16 Atom       -0.381737     -0.019660      0.401397
   17 Atom       -0.377698     -0.017761      0.395459
   18 Atom       -0.393048     -0.021131      0.414179
   19 Atom       -0.389450     -0.031801      0.421252
   20 Atom       -1.546293      0.424556      1.121737
   21 Atom       -0.339918      0.013426      0.326492
   22 Atom       -1.012857     -0.586357      1.599214
   23 Atom       -0.434644      0.196161      0.238484
 -----------------------------------------------------

 Test job not archived.
 1|1|UNPC-NP-ALMACH|FOpt|RB3LYP|6-311++G(d,p)|C7H1F13O2|HERA|04-Aug-201
 8|0||# RB3LYP/6-311++G** Opt Test prop=EFG||C7HO2F13||0,1|F,2.09970999
 35,2.4222394199,-2.8381093984|F,2.3527824056,4.3023268473,-1.776793940
 2|F,0.4001802501,3.7494520823,-2.5409762384|C,1.5199863256,3.278405798
 8,-1.9892835314|F,2.4020635069,2.3669600054,-0.0043657756|F,0.49206310
 35,3.4442449141,0.1232519297|C,1.2215080829,2.5817998718,-0.6183524858
 |F,-1.3040593835,1.4614317081,0.8347202902|F,0.6879842623,0.9666939309
 ,1.618169474|F,0.5731743116,-1.5095168596,0.7935294543|F,-1.1078944031
 ,-1.1199208239,-0.5634846368|F,-2.8020874134,-0.7857960316,1.430282773
 4|F,-1.1952337457,-0.6018275806,2.913064769|F,-0.5246186627,1.34681447
 1,-1.6552141759|F,1.3314538826,0.2810160912,-1.1648098733|C,0.45613742
 55,1.216548521,-0.7365252383|C,-0.187010313,0.7363687002,0.6159866715|
 C,-0.5624523512,-0.7884818683,0.6251122561|C,-1.5625736449,-1.20407549
 94,1.7579415738|O,-0.8437832231,-3.1492803315,2.9489731072|C,-1.600160
 2729,-2.7523592709,1.9237267382|O,-2.2369816989,-3.4530866061,1.193833
 446|H,-0.8860244379,-4.1177324902,2.9963578107||Version=EM64W-G09RevD.
 01|State=1-A|HF=-1716.243577|RMSD=4.770e-009|RMSF=7.340e-006|Dipole=0.
 290447,-0.6967463,0.5777939|Quadrupole=-6.1746519,5.8975801,0.2770719,
 -1.9095253,-1.7456521,-8.4233531|PG=C01 [X(C7H1F13O2)]||@


 The cat could very well be man's best friend
 but would never stoop to admitting it.
                               -- Doug Larson
 Job cpu time:       0 days  1 hours 43 minutes 24.0 seconds.
 File lengths (MBytes):  RWF=    107 Int=      0 D2E=      0 Chk=     16 Scr=      1
 Normal termination of Gaussian 09 at Sat Aug 04 05:13:37 2018.
