 Entering Link 1 = C:\G09W\l1.exe PID=     28372.
  
 Copyright (c) 1988,1990,1992,1993,1995,1998,2003,2009,2013,
            Gaussian, Inc.  All Rights Reserved.
  
 This is part of the Gaussian(R) 09 program.  It is based on
 the Gaussian(R) 03 system (copyright 2003, Gaussian, Inc.),
 the Gaussian(R) 98 system (copyright 1998, Gaussian, Inc.),
 the Gaussian(R) 94 system (copyright 1995, Gaussian, Inc.),
 the Gaussian 92(TM) system (copyright 1992, Gaussian, Inc.),
 the Gaussian 90(TM) system (copyright 1990, Gaussian, Inc.),
 the Gaussian 88(TM) system (copyright 1988, Gaussian, Inc.),
 the Gaussian 86(TM) system (copyright 1986, Carnegie Mellon
 University), and the Gaussian 82(TM) system (copyright 1983,
 Carnegie Mellon University). Gaussian is a federally registered
 trademark of Gaussian, Inc.
  
 This software contains proprietary and confidential information,
 including trade secrets, belonging to Gaussian, Inc.
  
 This software is provided under written license and may be
 used, copied, transmitted, or stored only in accord with that
 written license.
  
 The following legend is applicable only to US Government
 contracts under FAR:
  
                    RESTRICTED RIGHTS LEGEND
  
 Use, reproduction and disclosure by the US Government is
 subject to restrictions as set forth in subparagraphs (a)
 and (c) of the Commercial Computer Software - Restricted
 Rights clause in FAR 52.227-19.
  
 Gaussian, Inc.
 340 Quinnipiac St., Bldg. 40, Wallingford CT 06492
  
  
 ---------------------------------------------------------------
 Warning -- This program may not be used in any manner that
 competes with the business of Gaussian, Inc. or will provide
 assistance to any competitor of Gaussian, Inc.  The licensee
 of this program is prohibited from giving any competitor of
 Gaussian, Inc. access to this program.  By using this program,
 the user acknowledges that Gaussian, Inc. is engaged in the
 business of creating and licensing software in the field of
 computational chemistry and represents and warrants to the
 licensee that it is not a competitor of Gaussian, Inc. and that
 it will not use this program in any manner prohibited above.
 ---------------------------------------------------------------
  

 Cite this work as:
 Gaussian 09, Revision D.01,
 M. J. Frisch, G. W. Trucks, H. B. Schlegel, G. E. Scuseria, 
 M. A. Robb, J. R. Cheeseman, G. Scalmani, V. Barone, B. Mennucci, 
 G. A. Petersson, H. Nakatsuji, M. Caricato, X. Li, H. P. Hratchian, 
 A. F. Izmaylov, J. Bloino, G. Zheng, J. L. Sonnenberg, M. Hada, 
 M. Ehara, K. Toyota, R. Fukuda, J. Hasegawa, M. Ishida, T. Nakajima, 
 Y. Honda, O. Kitao, H. Nakai, T. Vreven, J. A. Montgomery, Jr., 
 J. E. Peralta, F. Ogliaro, M. Bearpark, J. J. Heyd, E. Brothers, 
 K. N. Kudin, V. N. Staroverov, T. Keith, R. Kobayashi, J. Normand, 
 K. Raghavachari, A. Rendell, J. C. Burant, S. S. Iyengar, J. Tomasi, 
 M. Cossi, N. Rega, J. M. Millam, M. Klene, J. E. Knox, J. B. Cross, 
 V. Bakken, C. Adamo, J. Jaramillo, R. Gomperts, R. E. Stratmann, 
 O. Yazyev, A. J. Austin, R. Cammi, C. Pomelli, J. W. Ochterski, 
 R. L. Martin, K. Morokuma, V. G. Zakrzewski, G. A. Voth, 
 P. Salvador, J. J. Dannenberg, S. Dapprich, A. D. Daniels, 
 O. Farkas, J. B. Foresman, J. V. Ortiz, J. Cioslowski, 
 and D. J. Fox, Gaussian, Inc., Wallingford CT, 2013.
 
 ******************************************
 Gaussian 09:  EM64W-G09RevD.01 13-Apr-2013
                05-Aug-2018 
 ******************************************
 %Chk=Anth_322.chk
 %Mem=64GB
 %NProcShared=20
 Will use up to   20 processors via shared memory.
 -------------------------------------
 # RB3LYP/6-311++G** Opt Test prop=EFG
 -------------------------------------
 1/14=-1,18=20,19=15,26=3,38=1/1,3;
 2/9=110,12=2,17=6,18=5,40=1/2;
 3/5=4,6=6,7=1111,11=2,16=1,25=1,30=1,71=1,74=-5,116=1/1,2,3;
 4//1;
 5/5=2,38=5/2;
 6/7=2,8=2,9=2,10=2,14=1,28=1/1,2;
 7//1,2,3,16;
 1/14=-1,18=20,19=15,26=3/3(2);
 2/9=110/2;
 99//99;
 2/9=110/2;
 3/5=4,6=6,7=1111,11=2,16=1,25=1,30=1,71=1,74=-5,116=1/1,2,3;
 4/5=5,16=3,69=1/1;
 5/5=2,38=5/2;
 7//1,2,3,16;
 1/14=-1,18=20,19=15,26=3/3(-5);
 2/9=110/2;
 6/7=2,8=2,9=2,10=2,14=1,19=2,28=1/1,2;
 99/9=1/99;
 ---------
 C6N2H14O2
 ---------
 Symbolic Z-matrix:
 Charge =  0 Multiplicity = 1
 O                    -1.38269   2.64097  -1.01704 
 C                    -0.21719   2.92932  -0.40401 
 C                     0.95563   2.29637  -1.12642 
 C                     0.981     0.76399  -1.00797 
 C                     1.05084   0.28186   0.45019 
 C                     1.11988  -1.2508    0.54566 
 C                     1.1945   -1.73183   2.00192 
 N                     1.252    -3.20169   2.06343 
 O                    -0.17663   3.61392   0.58947 
 N                     0.91998   2.69049  -2.54395 
 H                    -2.09667   3.0846   -0.53084 
 H                     1.89197   2.71427  -0.68387 
 H                     0.07554   0.33547  -1.49891 
 H                     1.86664   0.37432  -1.56497 
 H                     1.9495    0.72405   0.94234 
 H                     0.1539    0.64055   1.00815 
 H                     0.22043  -1.69547   0.05672 
 H                     2.01624  -1.61936  -0.00794 
 H                     2.09667  -1.31222   2.50522 
 H                     0.29574  -1.38918   2.56569 
 H                     1.23135  -3.52003   3.04797 
 H                     0.40887  -3.61392   1.62732 
 H                     1.74238   2.31679  -3.04797 
 H                     0.099     2.27228  -3.01579 
 

 GradGradGradGradGradGradGradGradGradGradGradGradGradGradGradGradGradGrad
 Berny optimization.
 Initialization pass.
                           ----------------------------
                           !    Initial Parameters    !
                           ! (Angstroms and Degrees)  !
 --------------------------                            --------------------------
 ! Name  Definition              Value          Derivative Info.                !
 --------------------------------------------------------------------------------
 ! R1    R(1,2)                  1.3481         estimate D2E/DX2                !
 ! R2    R(1,11)                 0.9711         estimate D2E/DX2                !
 ! R3    R(2,3)                  1.5159         estimate D2E/DX2                !
 ! R4    R(2,9)                  1.2072         estimate D2E/DX2                !
 ! R5    R(3,4)                  1.5372         estimate D2E/DX2                !
 ! R6    R(3,10)                 1.4717         estimate D2E/DX2                !
 ! R7    R(3,12)                 1.1168         estimate D2E/DX2                !
 ! R8    R(4,5)                  1.5374         estimate D2E/DX2                !
 ! R9    R(4,13)                 1.1156         estimate D2E/DX2                !
 ! R10   R(4,14)                 1.1164         estimate D2E/DX2                !
 ! R11   R(5,6)                  1.5372         estimate D2E/DX2                !
 ! R12   R(5,15)                 1.1159         estimate D2E/DX2                !
 ! R13   R(5,16)                 1.1156         estimate D2E/DX2                !
 ! R14   R(6,7)                  1.5355         estimate D2E/DX2                !
 ! R15   R(6,17)                 1.1162         estimate D2E/DX2                !
 ! R16   R(6,18)                 1.1161         estimate D2E/DX2                !
 ! R17   R(7,8)                  1.4723         estimate D2E/DX2                !
 ! R18   R(7,19)                 1.115          estimate D2E/DX2                !
 ! R19   R(7,20)                 1.1149         estimate D2E/DX2                !
 ! R20   R(8,21)                 1.0349         estimate D2E/DX2                !
 ! R21   R(8,22)                 1.0349         estimate D2E/DX2                !
 ! R22   R(10,23)                1.0344         estimate D2E/DX2                !
 ! R23   R(10,24)                1.0352         estimate D2E/DX2                !
 ! A1    A(2,1,11)             108.0755         estimate D2E/DX2                !
 ! A2    A(1,2,3)              111.2767         estimate D2E/DX2                !
 ! A3    A(1,2,9)              121.6404         estimate D2E/DX2                !
 ! A4    A(3,2,9)              127.0825         estimate D2E/DX2                !
 ! A5    A(2,3,4)              113.0965         estimate D2E/DX2                !
 ! A6    A(2,3,10)             109.1743         estimate D2E/DX2                !
 ! A7    A(2,3,12)             107.6729         estimate D2E/DX2                !
 ! A8    A(4,3,10)             109.9729         estimate D2E/DX2                !
 ! A9    A(4,3,12)             109.1876         estimate D2E/DX2                !
 ! A10   A(10,3,12)            107.5645         estimate D2E/DX2                !
 ! A11   A(3,4,5)              112.7346         estimate D2E/DX2                !
 ! A12   A(3,4,13)             109.611          estimate D2E/DX2                !
 ! A13   A(3,4,14)             108.8198         estimate D2E/DX2                !
 ! A14   A(5,4,13)             109.4998         estimate D2E/DX2                !
 ! A15   A(5,4,14)             109.1289         estimate D2E/DX2                !
 ! A16   A(13,4,14)            106.8718         estimate D2E/DX2                !
 ! A17   A(4,5,6)              111.9396         estimate D2E/DX2                !
 ! A18   A(4,5,15)             109.3058         estimate D2E/DX2                !
 ! A19   A(4,5,16)             109.6957         estimate D2E/DX2                !
 ! A20   A(6,5,15)             109.3608         estimate D2E/DX2                !
 ! A21   A(6,5,16)             109.0041         estimate D2E/DX2                !
 ! A22   A(15,5,16)            107.4272         estimate D2E/DX2                !
 ! A23   A(5,6,7)              111.9282         estimate D2E/DX2                !
 ! A24   A(5,6,17)             109.5007         estimate D2E/DX2                !
 ! A25   A(5,6,18)             109.5422         estimate D2E/DX2                !
 ! A26   A(7,6,17)             109.2577         estimate D2E/DX2                !
 ! A27   A(7,6,18)             109.1438         estimate D2E/DX2                !
 ! A28   A(17,6,18)            107.3575         estimate D2E/DX2                !
 ! A29   A(6,7,8)              110.7496         estimate D2E/DX2                !
 ! A30   A(6,7,19)             110.4578         estimate D2E/DX2                !
 ! A31   A(6,7,20)             110.1282         estimate D2E/DX2                !
 ! A32   A(8,7,19)             108.9808         estimate D2E/DX2                !
 ! A33   A(8,7,20)             108.4932         estimate D2E/DX2                !
 ! A34   A(19,7,20)            107.9591         estimate D2E/DX2                !
 ! A35   A(7,8,21)             110.2462         estimate D2E/DX2                !
 ! A36   A(7,8,22)             110.3809         estimate D2E/DX2                !
 ! A37   A(21,8,22)            105.1956         estimate D2E/DX2                !
 ! A38   A(3,10,23)            110.6893         estimate D2E/DX2                !
 ! A39   A(3,10,24)            110.4908         estimate D2E/DX2                !
 ! A40   A(23,10,24)           105.2179         estimate D2E/DX2                !
 ! D1    D(11,1,2,3)          -178.6608         estimate D2E/DX2                !
 ! D2    D(11,1,2,9)             1.1331         estimate D2E/DX2                !
 ! D3    D(1,2,3,4)            -69.0646         estimate D2E/DX2                !
 ! D4    D(1,2,3,10)            53.7176         estimate D2E/DX2                !
 ! D5    D(1,2,3,12)           170.213          estimate D2E/DX2                !
 ! D6    D(9,2,3,4)            111.1554         estimate D2E/DX2                !
 ! D7    D(9,2,3,10)          -126.0624         estimate D2E/DX2                !
 ! D8    D(9,2,3,12)            -9.5671         estimate D2E/DX2                !
 ! D9    D(2,3,4,5)            -58.9561         estimate D2E/DX2                !
 ! D10   D(2,3,4,13)            63.2866         estimate D2E/DX2                !
 ! D11   D(2,3,4,14)           179.834          estimate D2E/DX2                !
 ! D12   D(10,3,4,5)           178.7064         estimate D2E/DX2                !
 ! D13   D(10,3,4,13)          -59.0509         estimate D2E/DX2                !
 ! D14   D(10,3,4,14)           57.4965         estimate D2E/DX2                !
 ! D15   D(12,3,4,5)            60.9022         estimate D2E/DX2                !
 ! D16   D(12,3,4,13)         -176.8551         estimate D2E/DX2                !
 ! D17   D(12,3,4,14)          -60.3077         estimate D2E/DX2                !
 ! D18   D(2,3,10,23)          176.6401         estimate D2E/DX2                !
 ! D19   D(2,3,10,24)          -67.2134         estimate D2E/DX2                !
 ! D20   D(4,3,10,23)          -58.7296         estimate D2E/DX2                !
 ! D21   D(4,3,10,24)           57.4169         estimate D2E/DX2                !
 ! D22   D(12,3,10,23)          60.0758         estimate D2E/DX2                !
 ! D23   D(12,3,10,24)         176.2223         estimate D2E/DX2                !
 ! D24   D(3,4,5,6)           -178.2064         estimate D2E/DX2                !
 ! D25   D(3,4,5,15)           -56.8877         estimate D2E/DX2                !
 ! D26   D(3,4,5,16)            60.658          estimate D2E/DX2                !
 ! D27   D(13,4,5,6)            59.4883         estimate D2E/DX2                !
 ! D28   D(13,4,5,15)         -179.1929         estimate D2E/DX2                !
 ! D29   D(13,4,5,16)          -61.6472         estimate D2E/DX2                !
 ! D30   D(14,4,5,6)           -57.1725         estimate D2E/DX2                !
 ! D31   D(14,4,5,15)           64.1462         estimate D2E/DX2                !
 ! D32   D(14,4,5,16)         -178.3081         estimate D2E/DX2                !
 ! D33   D(4,5,6,7)            179.8037         estimate D2E/DX2                !
 ! D34   D(4,5,6,17)           -58.8815         estimate D2E/DX2                !
 ! D35   D(4,5,6,18)            58.6044         estimate D2E/DX2                !
 ! D36   D(15,5,6,7)            58.5167         estimate D2E/DX2                !
 ! D37   D(15,5,6,17)          179.8315         estimate D2E/DX2                !
 ! D38   D(15,5,6,18)          -62.6826         estimate D2E/DX2                !
 ! D39   D(16,5,6,7)           -58.6618         estimate D2E/DX2                !
 ! D40   D(16,5,6,17)           62.6529         estimate D2E/DX2                !
 ! D41   D(16,5,6,18)         -179.8611         estimate D2E/DX2                !
 ! D42   D(5,6,7,8)            179.6841         estimate D2E/DX2                !
 ! D43   D(5,6,7,19)           -59.4816         estimate D2E/DX2                !
 ! D44   D(5,6,7,20)            59.6767         estimate D2E/DX2                !
 ! D45   D(17,6,7,8)            58.2293         estimate D2E/DX2                !
 ! D46   D(17,6,7,19)          179.0635         estimate D2E/DX2                !
 ! D47   D(17,6,7,20)          -61.7781         estimate D2E/DX2                !
 ! D48   D(18,6,7,8)           -58.8867         estimate D2E/DX2                !
 ! D49   D(18,6,7,19)           61.9475         estimate D2E/DX2                !
 ! D50   D(18,6,7,20)         -178.8941         estimate D2E/DX2                !
 ! D51   D(6,7,8,21)          -175.8227         estimate D2E/DX2                !
 ! D52   D(6,7,8,22)           -60.0332         estimate D2E/DX2                !
 ! D53   D(19,7,8,21)           62.4713         estimate D2E/DX2                !
 ! D54   D(19,7,8,22)          178.2608         estimate D2E/DX2                !
 ! D55   D(20,7,8,21)          -54.8424         estimate D2E/DX2                !
 ! D56   D(20,7,8,22)           60.9471         estimate D2E/DX2                !
 --------------------------------------------------------------------------------
 Trust Radius=3.00D-01 FncErr=1.00D-07 GrdErr=1.00D-06
 Number of steps in this run=    129 maximum allowed number of steps=    144.
 GradGradGradGradGradGradGradGradGradGradGradGradGradGradGradGradGradGrad

                          Input orientation:                          
 ---------------------------------------------------------------------
 Center     Atomic      Atomic             Coordinates (Angstroms)
 Number     Number       Type             X           Y           Z
 ---------------------------------------------------------------------
      1          8           0       -1.382694    2.640967   -1.017037
      2          6           0       -0.217193    2.929318   -0.404011
      3          6           0        0.955632    2.296372   -1.126418
      4          6           0        0.980998    0.763991   -1.007970
      5          6           0        1.050840    0.281861    0.450191
      6          6           0        1.119883   -1.250803    0.545664
      7          6           0        1.194500   -1.731830    2.001922
      8          7           0        1.251996   -3.201692    2.063428
      9          8           0       -0.176626    3.613922    0.589473
     10          7           0        0.919979    2.690488   -2.543951
     11          1           0       -2.096665    3.084597   -0.530843
     12          1           0        1.891974    2.714272   -0.683868
     13          1           0        0.075543    0.335465   -1.498905
     14          1           0        1.866643    0.374315   -1.564965
     15          1           0        1.949502    0.724045    0.942340
     16          1           0        0.153901    0.640550    1.008149
     17          1           0        0.220431   -1.695473    0.056717
     18          1           0        2.016239   -1.619360   -0.007940
     19          1           0        2.096665   -1.312223    2.505216
     20          1           0        0.295742   -1.389177    2.565687
     21          1           0        1.231352   -3.520033    3.047973
     22          1           0        0.408868   -3.613922    1.627315
     23          1           0        1.742383    2.316785   -3.047973
     24          1           0        0.098998    2.272280   -3.015794
 ---------------------------------------------------------------------
                    Distance matrix (angstroms):
                    1          2          3          4          5
     1  O    0.000000
     2  C    1.348087   0.000000
     3  C    2.366110   1.515919   0.000000
     4  C    3.018304   2.547365   1.537161   0.000000
     5  C    3.693268   3.057221   2.559886   1.537388   0.000000
     6  C    4.883728   4.490330   3.924957   2.548031   1.537186
     7  C    5.905709   5.432098   5.105877   3.915885   2.546264
     8  N    7.111084   6.770233   6.363305   5.023302   3.844234
     9  O    2.232065   1.207203   2.441767   3.466125   3.553689
    10  N    2.763371   2.435065   1.471733   2.464620   3.844931
    11  H    0.971054   1.890136   3.208197   3.883925   4.327187
    12  H    3.292389   2.138492   1.116793   2.176813   2.812511
    13  H    2.770197   2.830647   2.181389   1.115572   2.180150
    14  H    3.999516   3.495458   2.171766   1.116449   2.175991
    15  H    4.314774   3.372011   2.782041   2.177913   1.115944
    16  H    3.234837   2.714842   2.817959   2.182673   1.115560
    17  H    4.746332   4.668241   4.227902   2.785854   2.180424
    18  H    5.542690   5.082869   4.208187   2.784268   2.180945
    19  H    6.335607   5.639877   5.245253   4.230585   2.803209
    20  H    5.647576   5.266081   5.258361   4.228089   2.799619
    21  H    7.830419   7.457118   7.164644   5.904762   4.608194
    22  H    7.023242   6.879842   6.543208   5.141807   4.120058
    23  H    3.741110   3.347487   2.076480   2.674414   4.105642
    24  H    2.515228   2.711657   2.074643   2.661619   4.108628
                    6          7          8          9         10
     6  C    0.000000
     7  C    1.535462   0.000000
     8  N    2.475284   1.472271   0.000000
     9  O    5.034720   5.696671   7.118012   0.000000
    10  N    5.011931   6.348009   7.487053   3.445812   0.000000
    11  H    5.504611   6.359610   7.580317   2.285135   3.648022
    12  H    4.222522   5.240969   6.554070   2.590342   2.098868
    13  H    2.790547   4.216819   5.156136   3.895278   2.711333
    14  H    2.766480   4.196463   5.131360   4.394497   2.686865
    15  H    2.178450   2.779220   4.141831   3.605042   4.132922
    16  H    2.173529   2.774638   4.133068   3.020841   4.172114
    17  H    1.116161   2.175765   2.712879   5.350809   5.146795
    18  H    1.116139   2.174270   2.716322   5.705506   5.119368
    19  H    2.190370   1.115023   2.116302   5.753679   6.549838
    20  H    2.186058   1.114903   2.109952   5.399959   6.568237
    21  H    3.379849   2.072016   1.034938   7.675932   8.362843
    22  H    2.694410   2.073600   1.034888   7.325411   7.576693
    23  H    5.101903   6.495606   7.537937   4.312328   1.034428
    24  H    5.112563   6.512334   7.555943   3.856672   1.035154
                   11         12         13         14         15
    11  H    0.000000
    12  H    4.008715   0.000000
    13  H    3.635018   3.102004   0.000000
    14  H    4.911502   2.500474   1.792739   0.000000
    15  H    4.910595   2.570771   3.101998   2.532934   0.000000
    16  H    3.661545   3.191260   2.526764   3.102464   1.798745
    17  H    5.344458   4.773717   2.562355   3.102239   3.102915
    18  H    6.270297   4.387788   3.132191   2.534057   2.529631
    19  H    6.792179   5.140507   4.778367   4.411768   2.571114
    20  H    5.943632   5.472281   4.420835   4.758142   3.136221
    21  H    8.216128   7.295863   6.072467   6.070316   4.791829
    22  H    7.470308   6.898348   5.047971   5.312419   4.654106
    23  H    4.654435   2.401950   3.017217   2.447027   4.301432
    24  H    3.414056   2.974559   2.460235   2.971825   4.635539
                   16         17         18         19         20
    16  H    0.000000
    17  H    2.523223   0.000000
    18  H    3.099667   1.798583   0.000000
    19  H    3.135102   3.108421   2.533131   0.000000
    20  H    2.562389   2.528719   3.104295   1.803580   0.000000
    21  H    4.757335   3.646724   3.683369   2.432648   2.376660
    22  H    4.306844   2.486510   3.039075   2.986166   2.417195
    23  H    4.667458   5.296570   4.980967   6.643277   6.880414
    24  H    4.342542   5.019774   5.279002   6.879018   6.678166
                   21         22         23         24
    21  H    0.000000
    22  H    1.644252   0.000000
    23  H    8.455185   7.668759   0.000000
    24  H    8.461819   7.503456   1.644302   0.000000
 Stoichiometry    C6H14N2O2
 Framework group  C1[X(C6H14N2O2)]
 Deg. of freedom    66
 Full point group                 C1      NOp   1
 Largest Abelian subgroup         C1      NOp   1
 Largest concise Abelian subgroup C1      NOp   1
                         Standard orientation:                         
 ---------------------------------------------------------------------
 Center     Atomic      Atomic             Coordinates (Angstroms)
 Number     Number       Type             X           Y           Z
 ---------------------------------------------------------------------
      1          8           0        2.422018   -0.806260    1.251253
      2          6           0        2.144643   -0.774274   -0.067603
      3          6           0        1.704902    0.609320   -0.503841
      4          6           0        0.328693    1.008109    0.052830
      5          6           0       -0.786965    0.038589   -0.370130
      6          6           0       -2.161415    0.478500    0.159311
      7          6           0       -3.276195   -0.487363   -0.267322
      8          7           0       -4.578387   -0.046185    0.259215
      9          8           0        2.255452   -1.755519   -0.762023
     10          7           0        2.718943    1.592002   -0.089045
     11          1           0        2.717874   -1.703616    1.475233
     12          1           0        1.665469    0.616361   -1.619916
     13          1           0        0.375579    1.058909    1.166258
     14          1           0        0.077815    2.034394   -0.308082
     15          1           0       -0.821327   -0.020995   -1.483953
     16          1           0       -0.560853   -0.984661    0.012372
     17          1           0       -2.130537    0.535909    1.273566
     18          1           0       -2.397933    1.501079   -0.220370
     19          1           0       -3.335899   -0.546895   -1.379153
     20          1           0       -3.066217   -1.511151    0.120975
     21          1           0       -5.311790   -0.738455    0.026883
     22          1           0       -4.555977   -0.011434    1.293277
     23          1           0        2.469581    2.538240   -0.424444
     24          1           0        2.748594    1.668534    0.942850
 ---------------------------------------------------------------------
 Rotational constants (GHZ):      2.4636646      0.4969765      0.4554421
 Standard basis: 6-311++G(d,p) (5D, 7F)
 There are   328 symmetry adapted cartesian basis functions of A   symmetry.
 There are   318 symmetry adapted basis functions of A   symmetry.
   318 basis functions,   486 primitive gaussians,   328 cartesian basis functions
    40 alpha electrons       40 beta electrons
       nuclear repulsion energy       547.3064903056 Hartrees.
 NAtoms=   24 NActive=   24 NUniq=   24 SFac= 1.00D+00 NAtFMM=   60 NAOKFM=F Big=F
 Integral buffers will be    131072 words long.
 Raffenetti 2 integral format.
 Two-electron integral symmetry is turned on.
 One-electron integrals computed using PRISM.
 NBasis=   318 RedAO= T EigKep=  3.61D-06  NBF=   318
 NBsUse=   318 1.00D-06 EigRej= -1.00D+00 NBFU=   318
 ExpMin= 3.60D-02 ExpMax= 8.59D+03 ExpMxC= 1.30D+03 IAcc=3 IRadAn=         5 AccDes= 0.00D+00
 Harris functional with IExCor=  402 and IRadAn=       5 diagonalized for initial guess.
 HarFok:  IExCor=  402 AccDes= 0.00D+00 IRadAn=         5 IDoV= 1 UseB2=F ITyADJ=14
 ICtDFT=  3500011 ScaDFX=  1.000000  1.000000  1.000000  1.000000
 FoFCou: FMM=F IPFlag=           0 FMFlag=      100000 FMFlg1=           0
         NFxFlg=           0 DoJE=T BraDBF=F KetDBF=T FulRan=T
         wScrn=  0.000000 ICntrl=     500 IOpCl=  0 I1Cent=   200000004 NGrid=           0
         NMat0=    1 NMatS0=      1 NMatT0=    0 NMatD0=    1 NMtDS0=    0 NMtDT0=    0
 Petite list used in FoFCou.
 Keep R1 ints in memory in canonical form, NReq=1304491087.
 Requested convergence on RMS density matrix=1.00D-08 within 128 cycles.
 Requested convergence on MAX density matrix=1.00D-06.
 Requested convergence on             energy=1.00D-06.
 No special actions if energy rises.
 SCF Done:  E(RB3LYP) =  -497.182825070     A.U. after   13 cycles
            NFock= 13  Conv=0.81D-08     -V/T= 2.0047

 **********************************************************************

            Population analysis using the SCF density.

 **********************************************************************

 Orbital symmetries:
       Occupied  (A) (A) (A) (A) (A) (A) (A) (A) (A) (A) (A) (A)
                 (A) (A) (A) (A) (A) (A) (A) (A) (A) (A) (A) (A)
                 (A) (A) (A) (A) (A) (A) (A) (A) (A) (A) (A) (A)
                 (A) (A) (A) (A)
       Virtual   (A) (A) (A) (A) (A) (A) (A) (A) (A) (A) (A) (A)
                 (A) (A) (A) (A) (A) (A) (A) (A) (A) (A) (A) (A)
                 (A) (A) (A) (A) (A) (A) (A) (A) (A) (A) (A) (A)
                 (A) (A) (A) (A) (A) (A) (A) (A) (A) (A) (A) (A)
                 (A) (A) (A) (A) (A) (A) (A) (A) (A) (A) (A) (A)
                 (A) (A) (A) (A) (A) (A) (A) (A) (A) (A) (A) (A)
                 (A) (A) (A) (A) (A) (A) (A) (A) (A) (A) (A) (A)
                 (A) (A) (A) (A) (A) (A) (A) (A) (A) (A) (A) (A)
                 (A) (A) (A) (A) (A) (A) (A) (A) (A) (A) (A) (A)
                 (A) (A) (A) (A) (A) (A) (A) (A) (A) (A) (A) (A)
                 (A) (A) (A) (A) (A) (A) (A) (A) (A) (A) (A) (A)
                 (A) (A) (A) (A) (A) (A) (A) (A) (A) (A) (A) (A)
                 (A) (A) (A) (A) (A) (A) (A) (A) (A) (A) (A) (A)
                 (A) (A) (A) (A) (A) (A) (A) (A) (A) (A) (A) (A)
                 (A) (A) (A) (A) (A) (A) (A) (A) (A) (A) (A) (A)
                 (A) (A) (A) (A) (A) (A) (A) (A) (A) (A) (A) (A)
                 (A) (A) (A) (A) (A) (A) (A) (A) (A) (A) (A) (A)
                 (A) (A) (A) (A) (A) (A) (A) (A) (A) (A) (A) (A)
                 (A) (A) (A) (A) (A) (A) (A) (A) (A) (A) (A) (A)
                 (A) (A) (A) (A) (A) (A) (A) (A) (A) (A) (A) (A)
                 (A) (A) (A) (A) (A) (A) (A) (A) (A) (A) (A) (A)
                 (A) (A) (A) (A) (A) (A) (A) (A) (A) (A) (A) (A)
                 (A) (A) (A) (A) (A) (A) (A) (A) (A) (A) (A) (A)
                 (A) (A)
 The electronic state is 1-A.
 Alpha  occ. eigenvalues --  -19.18398 -19.12595 -14.30955 -14.29922 -10.31646
 Alpha  occ. eigenvalues --  -10.22776 -10.20079 -10.18700 -10.18029 -10.17743
 Alpha  occ. eigenvalues --   -1.12697  -1.03326  -0.90432  -0.88301  -0.80277
 Alpha  occ. eigenvalues --   -0.74475  -0.69477  -0.63656  -0.60499  -0.58859
 Alpha  occ. eigenvalues --   -0.52138  -0.49992  -0.49431  -0.48401  -0.47417
 Alpha  occ. eigenvalues --   -0.46569  -0.44946  -0.43544  -0.42243  -0.41384
 Alpha  occ. eigenvalues --   -0.39132  -0.38392  -0.36088  -0.35429  -0.34708
 Alpha  occ. eigenvalues --   -0.34155  -0.33580  -0.29500  -0.25209  -0.24425
 Alpha virt. eigenvalues --   -0.01936  -0.01658  -0.01107  -0.00485   0.00198
 Alpha virt. eigenvalues --    0.01269   0.02088   0.02418   0.03648   0.04530
 Alpha virt. eigenvalues --    0.05207   0.05482   0.05974   0.06061   0.07381
 Alpha virt. eigenvalues --    0.07807   0.08476   0.09226   0.09349   0.10152
 Alpha virt. eigenvalues --    0.10547   0.10964   0.11422   0.11966   0.12166
 Alpha virt. eigenvalues --    0.12430   0.13066   0.13727   0.14178   0.14429
 Alpha virt. eigenvalues --    0.14771   0.15341   0.15527   0.15900   0.16686
 Alpha virt. eigenvalues --    0.17201   0.17487   0.17985   0.18347   0.18760
 Alpha virt. eigenvalues --    0.19029   0.19419   0.19693   0.20382   0.20657
 Alpha virt. eigenvalues --    0.21394   0.21630   0.22196   0.22960   0.23559
 Alpha virt. eigenvalues --    0.23742   0.24540   0.24772   0.25193   0.26156
 Alpha virt. eigenvalues --    0.26684   0.28204   0.28571   0.29127   0.29701
 Alpha virt. eigenvalues --    0.30088   0.30211   0.31232   0.31400   0.31930
 Alpha virt. eigenvalues --    0.32818   0.33524   0.34144   0.34743   0.35126
 Alpha virt. eigenvalues --    0.36104   0.36350   0.36755   0.37470   0.39899
 Alpha virt. eigenvalues --    0.40259   0.43189   0.45280   0.46198   0.47092
 Alpha virt. eigenvalues --    0.48318   0.50745   0.51739   0.52420   0.54205
 Alpha virt. eigenvalues --    0.55227   0.56361   0.58691   0.60276   0.60888
 Alpha virt. eigenvalues --    0.62092   0.63571   0.64393   0.65462   0.65589
 Alpha virt. eigenvalues --    0.67104   0.67362   0.68022   0.68894   0.70257
 Alpha virt. eigenvalues --    0.71164   0.71531   0.72461   0.72917   0.74182
 Alpha virt. eigenvalues --    0.75556   0.76707   0.77534   0.79030   0.81415
 Alpha virt. eigenvalues --    0.82268   0.83390   0.87435   0.88997   0.90413
 Alpha virt. eigenvalues --    0.91410   0.92850   0.93446   0.98359   0.99492
 Alpha virt. eigenvalues --    1.01190   1.02104   1.06091   1.07910   1.11389
 Alpha virt. eigenvalues --    1.14028   1.15721   1.17906   1.18324   1.19295
 Alpha virt. eigenvalues --    1.21462   1.23685   1.24064   1.25528   1.27397
 Alpha virt. eigenvalues --    1.27527   1.29718   1.29933   1.33399   1.38614
 Alpha virt. eigenvalues --    1.42575   1.45753   1.47787   1.49648   1.50567
 Alpha virt. eigenvalues --    1.51742   1.54861   1.55954   1.56162   1.57018
 Alpha virt. eigenvalues --    1.57843   1.58387   1.58639   1.60298   1.61226
 Alpha virt. eigenvalues --    1.64304   1.65631   1.66342   1.66711   1.67950
 Alpha virt. eigenvalues --    1.69506   1.69960   1.71626   1.72438   1.73913
 Alpha virt. eigenvalues --    1.74635   1.76014   1.78818   1.81193   1.82981
 Alpha virt. eigenvalues --    1.83555   1.86261   1.87053   1.89862   1.91227
 Alpha virt. eigenvalues --    1.93210   1.94386   1.98252   2.01677   2.02953
 Alpha virt. eigenvalues --    2.05138   2.06184   2.08353   2.13006   2.15532
 Alpha virt. eigenvalues --    2.16131   2.19078   2.21836   2.24229   2.26872
 Alpha virt. eigenvalues --    2.27284   2.31911   2.34320   2.35639   2.37210
 Alpha virt. eigenvalues --    2.43904   2.45383   2.48455   2.50317   2.51146
 Alpha virt. eigenvalues --    2.53687   2.54863   2.55876   2.57351   2.58983
 Alpha virt. eigenvalues --    2.59299   2.61799   2.63627   2.64786   2.68004
 Alpha virt. eigenvalues --    2.68665   2.70941   2.73254   2.73835   2.74707
 Alpha virt. eigenvalues --    2.76982   2.78452   2.79810   2.81928   2.84063
 Alpha virt. eigenvalues --    2.85154   2.87793   2.90804   2.93951   2.94743
 Alpha virt. eigenvalues --    2.95862   2.97332   2.98630   2.99773   3.02168
 Alpha virt. eigenvalues --    3.04347   3.06772   3.11050   3.14185   3.15291
 Alpha virt. eigenvalues --    3.18532   3.19029   3.22658   3.30208   3.37739
 Alpha virt. eigenvalues --    3.43140   3.53474   3.55258   3.63454   3.69513
 Alpha virt. eigenvalues --    3.73528   3.76097   3.77081   3.82396   3.84151
 Alpha virt. eigenvalues --    4.00942   4.05061   4.06921   4.08896   4.11281
 Alpha virt. eigenvalues --    4.17961   4.26365   4.33570   4.65967   4.66403
 Alpha virt. eigenvalues --    4.81321   4.81764   5.00655   5.08484   5.17688
 Alpha virt. eigenvalues --    5.40927   5.59201   5.84924  23.79418  23.80055
 Alpha virt. eigenvalues --   23.82188  23.85819  23.86231  23.88473  35.57367
 Alpha virt. eigenvalues --   35.58017  49.87505  50.01286
          Condensed to atoms (all electrons):
               1          2          3          4          5          6
     1  O    8.024688   0.196820   0.178616  -0.273206   0.062440  -0.033522
     2  C    0.196820   7.444017  -2.294162   0.073504   0.534694   0.074159
     3  C    0.178616  -2.294162  12.378566  -3.499114   0.503790  -1.107874
     4  C   -0.273206   0.073504  -3.499114   9.856577  -1.768114   1.273447
     5  C    0.062440   0.534694   0.503790  -1.768114   7.537503  -1.437116
     6  C   -0.033522   0.074159  -1.107874   1.273447  -1.437116   7.476154
     7  C    0.000324  -0.004113  -0.216820  -0.126821  -0.027194  -0.490720
     8  N   -0.000006   0.003142  -0.003143  -0.023888   0.044494  -0.068333
     9  O   -0.169517   0.497290   0.112349  -0.136709  -0.007844   0.001307
    10  N   -0.079642   0.096959  -0.532153   0.380943  -0.130164   0.127976
    11  H    0.229468   0.127170  -0.135038   0.017621   0.011355  -0.002583
    12  H    0.014834  -0.260812   0.552319   0.023222  -0.080705   0.003113
    13  H    0.005579  -0.039425  -0.021504   0.484484  -0.097503  -0.000679
    14  H   -0.003449  -0.027480   0.087899   0.332935  -0.035584   0.010478
    15  H    0.001316  -0.015316  -0.029449  -0.013962   0.499999  -0.172512
    16  H   -0.006470  -0.074144   0.130301  -0.149246   0.478821  -0.048546
    17  H   -0.002398  -0.007666  -0.013616   0.014393  -0.036678   0.283762
    18  H    0.000691   0.016360  -0.008726  -0.032375  -0.041061   0.513027
    19  H   -0.000312   0.002789  -0.003150  -0.010392   0.011064  -0.118721
    20  H    0.000818   0.001616   0.009988   0.010392  -0.095646   0.223190
    21  H    0.000006   0.000076  -0.000885  -0.005316   0.002148  -0.048577
    22  H    0.000004   0.000946  -0.001462   0.005319   0.001218   0.044303
    23  H   -0.004500   0.009669  -0.104117   0.066664  -0.017823   0.012576
    24  H   -0.003298  -0.042470   0.074426  -0.040359  -0.002093  -0.002107
               7          8          9         10         11         12
     1  O    0.000324  -0.000006  -0.169517  -0.079642   0.229468   0.014834
     2  C   -0.004113   0.003142   0.497290   0.096959   0.127170  -0.260812
     3  C   -0.216820  -0.003143   0.112349  -0.532153  -0.135038   0.552319
     4  C   -0.126821  -0.023888  -0.136709   0.380943   0.017621   0.023222
     5  C   -0.027194   0.044494  -0.007844  -0.130164   0.011355  -0.080705
     6  C   -0.490720  -0.068333   0.001307   0.127976  -0.002583   0.003113
     7  C    6.682785   0.109187  -0.002824   0.011854  -0.000342  -0.000366
     8  N    0.109187   6.653993  -0.000006  -0.000149   0.000045  -0.000028
     9  O   -0.002824  -0.000006   7.972377  -0.024456  -0.005932   0.001637
    10  N    0.011854  -0.000149  -0.024456   6.725934   0.006647  -0.037043
    11  H   -0.000342   0.000045  -0.005932   0.006647   0.467939  -0.006603
    12  H   -0.000366  -0.000028   0.001637  -0.037043  -0.006603   0.551595
    13  H   -0.018310  -0.003076  -0.000618   0.000987  -0.000835   0.019132
    14  H   -0.004567  -0.002178   0.000713  -0.038160  -0.000932  -0.024032
    15  H    0.052341   0.000177  -0.004518  -0.003171   0.000011   0.004741
    16  H   -0.014959  -0.007118  -0.004494  -0.011496  -0.004087  -0.000085
    17  H    0.055646   0.007489   0.000291  -0.001597   0.000015   0.001072
    18  H   -0.140071   0.008423  -0.000124  -0.000396   0.000128  -0.001069
    19  H    0.469345  -0.036837   0.000290  -0.000077   0.000052   0.000353
    20  H    0.194453  -0.134248  -0.000064  -0.000169   0.000031   0.000009
    21  H    0.011608   0.383990  -0.000005  -0.000006   0.000001   0.000011
    22  H   -0.104780   0.392291  -0.000010   0.000104   0.000002  -0.000064
    23  H    0.001955   0.000004  -0.001376   0.374565  -0.000492  -0.019563
    24  H    0.000407   0.000070  -0.001220   0.369714   0.001219   0.012798
              13         14         15         16         17         18
     1  O    0.005579  -0.003449   0.001316  -0.006470  -0.002398   0.000691
     2  C   -0.039425  -0.027480  -0.015316  -0.074144  -0.007666   0.016360
     3  C   -0.021504   0.087899  -0.029449   0.130301  -0.013616  -0.008726
     4  C    0.484484   0.332935  -0.013962  -0.149246   0.014393  -0.032375
     5  C   -0.097503  -0.035584   0.499999   0.478821  -0.036678  -0.041061
     6  C   -0.000679   0.010478  -0.172512  -0.048546   0.283762   0.513027
     7  C   -0.018310  -0.004567   0.052341  -0.014959   0.055646  -0.140071
     8  N   -0.003076  -0.002178   0.000177  -0.007118   0.007489   0.008423
     9  O   -0.000618   0.000713  -0.004518  -0.004494   0.000291  -0.000124
    10  N    0.000987  -0.038160  -0.003171  -0.011496  -0.001597  -0.000396
    11  H   -0.000835  -0.000932   0.000011  -0.004087   0.000015   0.000128
    12  H    0.019132  -0.024032   0.004741  -0.000085   0.001072  -0.001069
    13  H    0.584807  -0.075759   0.012918  -0.022182  -0.010035   0.006794
    14  H   -0.075759   0.632674  -0.021479   0.024137  -0.003140   0.000582
    15  H    0.012918  -0.021479   0.633912  -0.078981   0.024258  -0.025986
    16  H   -0.022182   0.024137  -0.078981   0.646157  -0.025855   0.013469
    17  H   -0.010035  -0.003140   0.024258  -0.025855   0.719416  -0.097996
    18  H    0.006794   0.000582  -0.025986   0.013469  -0.097996   0.616945
    19  H   -0.002136  -0.000724   0.010690  -0.004278   0.030761  -0.021357
    20  H    0.006314   0.000685  -0.010479   0.016229  -0.068016   0.029309
    21  H   -0.000231  -0.000542   0.001210  -0.000639   0.002283   0.001220
    22  H    0.000544   0.000326  -0.000969   0.000031   0.005583   0.001251
    23  H   -0.003753   0.015831  -0.000067   0.000637  -0.000289   0.000193
    24  H    0.005821  -0.005365   0.000335   0.000020   0.001489  -0.000502
              19         20         21         22         23         24
     1  O   -0.000312   0.000818   0.000006   0.000004  -0.004500  -0.003298
     2  C    0.002789   0.001616   0.000076   0.000946   0.009669  -0.042470
     3  C   -0.003150   0.009988  -0.000885  -0.001462  -0.104117   0.074426
     4  C   -0.010392   0.010392  -0.005316   0.005319   0.066664  -0.040359
     5  C    0.011064  -0.095646   0.002148   0.001218  -0.017823  -0.002093
     6  C   -0.118721   0.223190  -0.048577   0.044303   0.012576  -0.002107
     7  C    0.469345   0.194453   0.011608  -0.104780   0.001955   0.000407
     8  N   -0.036837  -0.134248   0.383990   0.392291   0.000004   0.000070
     9  O    0.000290  -0.000064  -0.000005  -0.000010  -0.001376  -0.001220
    10  N   -0.000077  -0.000169  -0.000006   0.000104   0.374565   0.369714
    11  H    0.000052   0.000031   0.000001   0.000002  -0.000492   0.001219
    12  H    0.000353   0.000009   0.000011  -0.000064  -0.019563   0.012798
    13  H   -0.002136   0.006314  -0.000231   0.000544  -0.003753   0.005821
    14  H   -0.000724   0.000685  -0.000542   0.000326   0.015831  -0.005365
    15  H    0.010690  -0.010479   0.001210  -0.000969  -0.000067   0.000335
    16  H   -0.004278   0.016229  -0.000639   0.000031   0.000637   0.000020
    17  H    0.030761  -0.068016   0.002283   0.005583  -0.000289   0.001489
    18  H   -0.021357   0.029309   0.001220   0.001251   0.000193  -0.000502
    19  H    0.622075  -0.098192  -0.012452   0.010274  -0.000037   0.000106
    20  H   -0.098192   0.783437  -0.000909  -0.000385  -0.000055  -0.000193
    21  H   -0.012452  -0.000909   0.499700  -0.067049   0.000005   0.000007
    22  H    0.010274  -0.000385  -0.067049   0.508465   0.000007  -0.000016
    23  H   -0.000037  -0.000055   0.000005   0.000007   0.500631  -0.064929
    24  H    0.000106  -0.000193   0.000007  -0.000016  -0.064929   0.439899
 Mulliken charges:
               1
     1  O   -0.139286
     2  C   -0.313622
     3  C   -0.057040
     4  C   -0.459997
     5  C    0.090001
     6  C   -0.512202
     7  C   -0.438015
     8  N   -0.324295
     9  O   -0.226535
    10  N   -0.237005
    11  H    0.295141
    12  H    0.245533
    13  H    0.168664
    14  H    0.137133
    15  H    0.134983
    16  H    0.142778
    17  H    0.120826
    18  H    0.161272
    19  H    0.150864
    20  H    0.131884
    21  H    0.234347
    22  H    0.204069
    23  H    0.234262
    24  H    0.256240
 Sum of Mulliken charges =   0.00000
 Mulliken charges with hydrogens summed into heavy atoms:
               1
     1  O    0.155855
     2  C   -0.313622
     3  C    0.188493
     4  C   -0.154200
     5  C    0.367762
     6  C   -0.230104
     7  C   -0.155267
     8  N    0.114121
     9  O   -0.226535
    10  N    0.253497
 Electronic spatial extent (au):  <R**2>=           2484.4085
 Charge=              0.0000 electrons
 Dipole moment (field-independent basis, Debye):
    X=             -1.2748    Y=              0.4457    Z=              2.1520  Tot=              2.5407
 Quadrupole moment (field-independent basis, Debye-Ang):
   XX=            -72.9966   YY=            -62.2325   ZZ=            -60.8489
   XY=              8.0795   XZ=              3.4153   YZ=             -5.2408
 Traceless Quadrupole moment (field-independent basis, Debye-Ang):
   XX=             -7.6373   YY=              3.1268   ZZ=              4.5104
   XY=              8.0795   XZ=              3.4153   YZ=             -5.2408
 Octapole moment (field-independent basis, Debye-Ang**2):
  XXX=             -7.0069  YYY=              7.5508  ZZZ=              7.0401  XYY=             11.9676
  XXY=            -47.7119  XXZ=             32.7667  XZZ=             -0.2007  YZZ=             -1.3318
  YYZ=             12.6765  XYZ=            -12.6603
 Hexadecapole moment (field-independent basis, Debye-Ang**3):
 XXXX=          -2711.8745 YYYY=           -434.9358 ZZZZ=           -208.2977 XXXY=            134.0653
 XXXZ=              7.3775 YYYX=             21.6813 YYYZ=            -32.6810 ZZZX=              5.5001
 ZZZY=            -10.8714 XXYY=           -506.9329 XXZZ=           -423.3088 YYZZ=           -104.5477
 XXYZ=            -20.4207 YYXZ=             38.0108 ZZXY=             -5.8598
 N-N= 5.473064903056D+02 E-N=-2.255395869932D+03  KE= 4.948341621615D+02

 **********************************************************************

            Electrostatic Properties Using The SCF Density

 **********************************************************************

       Atomic Center    1 is at   2.422018 -0.806260  1.251253
       Atomic Center    2 is at   2.144643 -0.774274 -0.067603
       Atomic Center    3 is at   1.704902  0.609320 -0.503841
       Atomic Center    4 is at   0.328693  1.008109  0.052830
       Atomic Center    5 is at  -0.786965  0.038589 -0.370130
       Atomic Center    6 is at  -2.161415  0.478500  0.159311
       Atomic Center    7 is at  -3.276195 -0.487363 -0.267322
       Atomic Center    8 is at  -4.578387 -0.046185  0.259215
       Atomic Center    9 is at   2.255452 -1.755519 -0.762023
       Atomic Center   10 is at   2.718943  1.592002 -0.089045
       Atomic Center   11 is at   2.717874 -1.703616  1.475233
       Atomic Center   12 is at   1.665469  0.616361 -1.619916
       Atomic Center   13 is at   0.375579  1.058909  1.166258
       Atomic Center   14 is at   0.077815  2.034394 -0.308082
       Atomic Center   15 is at  -0.821327 -0.020995 -1.483953
       Atomic Center   16 is at  -0.560853 -0.984661  0.012372
       Atomic Center   17 is at  -2.130537  0.535909  1.273566
       Atomic Center   18 is at  -2.397933  1.501079 -0.220370
       Atomic Center   19 is at  -3.335899 -0.546895 -1.379153
       Atomic Center   20 is at  -3.066217 -1.511151  0.120975
       Atomic Center   21 is at  -5.311790 -0.738455  0.026883
       Atomic Center   22 is at  -4.555977 -0.011434  1.293277
       Atomic Center   23 is at   2.469581  2.538240 -0.424444
       Atomic Center   24 is at   2.748594  1.668534  0.942850
 -----------------------------------------------------------------

              Electrostatic Properties (Atomic Units)

 -----------------------------------------------------------------
    Center     Electric         -------- Electric Field --------
               Potential          X             Y             Z
 -----------------------------------------------------------------
    1 Atom    -22.312059     -0.002531      0.032716      0.029591
    2 Atom    -14.636074     -0.003841      0.011570     -0.007807
    3 Atom    -14.717018     -0.005688      0.002728     -0.003928
    4 Atom    -14.759462     -0.002314     -0.002414     -0.000527
    5 Atom    -14.764681     -0.001275      0.001187      0.001058
    6 Atom    -14.768030     -0.000478     -0.000955     -0.001975
    7 Atom    -14.743534      0.005082     -0.001202     -0.000353
    8 Atom    -18.414127     -0.008413      0.031609     -0.013685
    9 Atom    -22.374216      0.004406     -0.040378     -0.031231
   10 Atom    -18.403527      0.032600     -0.008218     -0.011073
   11 Atom     -0.948410      0.006981     -0.020720      0.005230
   12 Atom     -1.101335      0.001013     -0.003300     -0.002370
   13 Atom     -1.111242      0.001594      0.000543      0.004894
   14 Atom     -1.108207      0.001358      0.003995     -0.002071
   15 Atom     -1.119031      0.000280     -0.002023     -0.004834
   16 Atom     -1.119183      0.001395     -0.005174     -0.000343
   17 Atom     -1.119386     -0.000239      0.001184      0.005370
   18 Atom     -1.123681     -0.002636      0.004168     -0.000215
   19 Atom     -1.120943     -0.000949      0.000505     -0.004069
   20 Atom     -1.131183      0.009313     -0.008551     -0.001733
   21 Atom     -1.064330     -0.003769     -0.001748     -0.002613
   22 Atom     -1.063801      0.001444      0.000999      0.004852
   23 Atom     -1.050856     -0.001720      0.002691     -0.004772
   24 Atom     -1.054689      0.000831     -0.002385      0.004793
 -----------------------------------------------------------------
 -----------------------------------------------------
    Center         ---- Electric Field Gradient ----
                     XX            YY            ZZ
 -----------------------------------------------------
    1 Atom    -1236.056297  -1237.177452  -1237.592818
    2 Atom     -501.761242   -501.017035   -501.445312
    3 Atom     -500.392560   -500.475431   -500.241999
    4 Atom     -500.485824   -500.481756   -500.448737
    5 Atom     -500.313681   -500.299327   -500.282808
    6 Atom     -500.367966   -500.357810   -500.359339
    7 Atom     -500.467685   -500.277085   -500.257219
    8 Atom     -813.513199   -812.245550   -813.339936
    9 Atom    -1238.770981  -1238.099642  -1237.242549
   10 Atom     -812.172577   -813.479152   -813.243936
   11 Atom       -1.536676     -2.043956     -1.554064
   12 Atom       -1.678730     -1.684599     -2.059034
   13 Atom       -1.680934     -1.671450     -2.065949
   14 Atom       -1.699018     -2.005991     -1.714271
   15 Atom       -1.682220     -1.674434     -2.070420
   16 Atom       -1.702864     -2.008694     -1.722253
   17 Atom       -1.685323     -1.676765     -2.075359
   18 Atom       -1.689848     -2.002047     -1.717047
   19 Atom       -1.694907     -1.681206     -2.078537
   20 Atom       -1.729545     -2.040530     -1.754447
   21 Atom       -1.878619     -1.822625     -1.649033
   22 Atom       -1.635278     -1.580159     -2.137390
   23 Atom       -1.611964     -2.043938     -1.669138
   24 Atom       -1.571442     -1.621145     -2.115179
 -----------------------------------------------------
 -----------------------------------------------------
    Center         ---- Electric Field Gradient ----
                     XY            XZ            YZ
 -----------------------------------------------------
    1 Atom        0.572613     -0.589882      0.821638
    2 Atom       -0.193265      0.065162      0.049102
    3 Atom       -0.097573     -0.066067     -0.011179
    4 Atom        0.028762      0.025664     -0.030694
    5 Atom       -0.009831      0.002753     -0.020934
    6 Atom       -0.006486      0.009870     -0.032710
    7 Atom        0.077249      0.095772     -0.048374
    8 Atom       -0.332525      0.202105     -0.535388
    9 Atom       -0.393679      0.587319     -0.941208
   10 Atom       -0.457141     -0.546511      0.072407
   11 Atom        0.188644     -0.056594      0.144603
   12 Atom       -0.002082     -0.016336      0.004316
   13 Atom       -0.001837     -0.017238     -0.017338
   14 Atom        0.077386     -0.026424      0.121666
   15 Atom       -0.003372     -0.012243     -0.019326
   16 Atom        0.072352     -0.028958      0.127112
   17 Atom       -0.003573     -0.010352     -0.018346
   18 Atom        0.073405     -0.028020      0.124819
   19 Atom       -0.001638     -0.019465     -0.020797
   20 Atom        0.070453     -0.024627      0.127506
   21 Atom       -0.256705     -0.071460     -0.100747
   22 Atom       -0.012855     -0.012436     -0.028649
   23 Atom        0.106392     -0.067712      0.156234
   24 Atom       -0.020178     -0.022544     -0.032698
 -----------------------------------------------------
 -----------------------------------------------------
    Center         ---- Electric Field Gradient ----
                   ----       Eigenvalues       ----
 -----------------------------------------------------
    1 Atom    -1238.505726  -1236.546668  -1235.774174
    2 Atom     -501.823346   -501.432611   -500.967631
    3 Atom     -500.547126   -500.348391   -500.214473
    4 Atom     -500.531696   -500.455668   -500.428953
    5 Atom     -500.320819   -500.307773   -500.267224
    6 Atom     -500.391589   -500.370629   -500.322897
    7 Atom     -500.535815   -500.253943   -500.212231
    8 Atom     -813.647042   -813.518044   -811.933599
    9 Atom    -1238.984490  -1238.704704  -1236.423978
   10 Atom     -813.661459   -813.413582   -811.820623
   11 Atom       -2.146978     -1.515078     -1.472641
   12 Atom       -2.059782     -1.685261     -1.677320
   13 Atom       -2.067484     -1.680280     -1.670568
   14 Atom       -2.068180     -1.681112     -1.669989
   15 Atom       -2.071756     -1.682663     -1.672656
   16 Atom       -2.073354     -1.686622     -1.673835
   17 Atom       -2.076484     -1.685991     -1.674972
   18 Atom       -2.065420     -1.673455     -1.670068
   19 Atom       -2.080611     -1.693947     -1.680093
   20 Atom       -2.103974     -1.715126     -1.705422
   21 Atom       -2.138575     -1.635603     -1.576098
   22 Atom       -2.139199     -1.637470     -1.576159
   23 Atom       -2.129859     -1.628152     -1.567029
   24 Atom       -2.118373     -1.625312     -1.564081
 -----------------------------------------------------
 -----------------------------------------------------
    Center         ---- Electric Field Gradient ----
                       ( tensor representation )
                   3XX-RR        3YY-RR        3ZZ-RR
 -----------------------------------------------------
    1 Atom        0.885892     -0.235263     -0.650629
    2 Atom       -0.353379      0.390828     -0.037449
    3 Atom       -0.022564     -0.105434      0.127998
    4 Atom       -0.013718     -0.009650      0.023369
    5 Atom       -0.015076     -0.000722      0.015798
    6 Atom       -0.006261      0.003895      0.002366
    7 Atom       -0.133689      0.056911      0.076778
    8 Atom       -0.480304      0.787345     -0.307041
    9 Atom       -0.733257     -0.061918      0.795175
   10 Atom        0.792644     -0.513930     -0.278714
   11 Atom        0.174890     -0.332391      0.157501
   12 Atom        0.128725      0.122855     -0.251580
   13 Atom        0.125177      0.134661     -0.259838
   14 Atom        0.107409     -0.199564      0.092156
   15 Atom        0.126805      0.134591     -0.261395
   16 Atom        0.108406     -0.197424      0.089017
   17 Atom        0.127159      0.135718     -0.262877
   18 Atom        0.113133     -0.199066      0.085933
   19 Atom        0.123310      0.137011     -0.260320
   20 Atom        0.111962     -0.199022      0.087061
   21 Atom       -0.095193     -0.039200      0.134393
   22 Atom        0.148998      0.204117     -0.353115
   23 Atom        0.163049     -0.268924      0.105875
   24 Atom        0.197813      0.148111     -0.345924
 -----------------------------------------------------
 -----------------------------------------------------
    Center         ---- Electric Field Gradient ----
                       ( tensor representation )
                   ----       Eigenvalues       ----
 -----------------------------------------------------
    1 Atom       -1.563537      0.395522      1.168015
    2 Atom       -0.415483     -0.024748      0.440232
    3 Atom       -0.177130      0.021606      0.155524
    4 Atom       -0.059591      0.016438      0.043153
    5 Atom       -0.022214     -0.009168      0.031382
    6 Atom       -0.029884     -0.008924      0.038808
    7 Atom       -0.201819      0.080053      0.121765
    8 Atom       -0.614147     -0.485149      1.099296
    9 Atom       -0.946766     -0.666980      1.613746
   10 Atom       -0.696238     -0.448361      1.144599
   11 Atom       -0.435412      0.196487      0.238925
   12 Atom       -0.252328      0.122193      0.130135
   13 Atom       -0.261373      0.125830      0.135543
   14 Atom       -0.261753      0.125315      0.136438
   15 Atom       -0.262731      0.126362      0.136369
   16 Atom       -0.262084      0.124648      0.137435
   17 Atom       -0.264002      0.126491      0.137510
   18 Atom       -0.262439      0.129526      0.132913
   19 Atom       -0.262394      0.124270      0.138124
   20 Atom       -0.262467      0.126381      0.136086
   21 Atom       -0.355150      0.147822      0.207327
   22 Atom       -0.354923      0.146806      0.208117
   23 Atom       -0.354846      0.146862      0.207984
   24 Atom       -0.349118      0.143943      0.205174
 -----------------------------------------------------
 Calling FoFJK, ICntrl=      2127 FMM=F ISym2X=0 I1Cent= 0 IOpClX= 0 NMat=1 NMatS=1 NMatT=0.
 ***** Axes restored to original set *****
 -------------------------------------------------------------------
 Center     Atomic                   Forces (Hartrees/Bohr)
 Number     Number              X              Y              Z
 -------------------------------------------------------------------
      1        8          -0.007398286   -0.003393242   -0.004070752
      2        6          -0.000995460    0.007657056    0.005855929
      3        6           0.019276117   -0.004341063   -0.013395439
      4        6          -0.002321375   -0.010303258    0.008847495
      5        6          -0.000865512   -0.001216998    0.003518744
      6        6           0.003263822   -0.002287161   -0.000325905
      7        6          -0.007349112   -0.002353518    0.006582859
      8        7          -0.005938738   -0.013379579    0.007894802
      9        8           0.004717549   -0.003654923   -0.002280226
     10        7          -0.001934124   -0.001012588   -0.018542790
     11        1           0.002603132   -0.000486788   -0.000446771
     12        1          -0.014564196   -0.003758637   -0.003582982
     13        1           0.009545659    0.005867806    0.004334945
     14        1          -0.009678608    0.006737122    0.005175191
     15        1          -0.010515487   -0.003884274   -0.004018384
     16        1           0.010738352   -0.002593338   -0.004750636
     17        1           0.009517487    0.003857155    0.004491772
     18        1          -0.010655969    0.002325101    0.006290938
     19        1          -0.009922692   -0.005445767   -0.006042398
     20        1           0.008562404    0.006695485   -0.005690909
     21        1           0.001918157    0.004771054   -0.014298805
     22        1           0.011733263    0.007207634    0.005045788
     23        1          -0.009946484    0.006037008    0.010451929
     24        1           0.010210102    0.006955714    0.008955604
 -------------------------------------------------------------------
 Cartesian Forces:  Max     0.019276117 RMS     0.007547600

 GradGradGradGradGradGradGradGradGradGradGradGradGradGradGradGradGradGrad
 Berny optimization.
 FormGI is forming the generalized inverse of G from B-inverse, IUseBI=4.
 Internal  Forces:  Max     0.015175463 RMS     0.005267990
 Search for a local minimum.
 Step number   1 out of a maximum of  129
 All quantities printed in internal units (Hartrees-Bohrs-Radians)
 Mixed Optimization -- RFO/linear search
 Second derivative matrix not updated -- first step.
 ITU=  0
     Eigenvalues ---    0.00271   0.00274   0.00274   0.00297   0.00555
     Eigenvalues ---    0.00736   0.00743   0.00968   0.02378   0.03461
     Eigenvalues ---    0.03555   0.03564   0.04252   0.04309   0.04318
     Eigenvalues ---    0.04373   0.04776   0.04806   0.04813   0.05019
     Eigenvalues ---    0.05387   0.06658   0.08143   0.08150   0.08293
     Eigenvalues ---    0.09161   0.12073   0.12077   0.12185   0.12634
     Eigenvalues ---    0.16000   0.16000   0.16000   0.16000   0.16000
     Eigenvalues ---    0.17611   0.18361   0.21921   0.21921   0.21924
     Eigenvalues ---    0.21948   0.25000   0.25000   0.28752   0.28770
     Eigenvalues ---    0.28772   0.28925   0.30763   0.31891   0.31927
     Eigenvalues ---    0.31956   0.31959   0.31979   0.32017   0.32018
     Eigenvalues ---    0.32074   0.32086   0.35470   0.35534   0.42006
     Eigenvalues ---    0.42038   0.42045   0.42114   0.53162   0.55430
     Eigenvalues ---    1.01286
 RFO step:  Lambda=-1.32563362D-02 EMin= 2.71380687D-03
 Linear search not attempted -- first point.
 Iteration  1 RMS(Cart)=  0.04734186 RMS(Int)=  0.00079228
 Iteration  2 RMS(Cart)=  0.00153199 RMS(Int)=  0.00032329
 Iteration  3 RMS(Cart)=  0.00000048 RMS(Int)=  0.00032329
 Variable       Old X    -DE/DX   Delta X   Delta X   Delta X     New X
                                 (Linear)    (Quad)   (Total)
    R1        2.54752   0.00702   0.00000   0.01237   0.01237   2.55988
    R2        1.83503  -0.00236   0.00000  -0.00434  -0.00434   1.83069
    R3        2.86467   0.00041   0.00000   0.00129   0.00129   2.86596
    R4        2.28128  -0.00379   0.00000  -0.00370  -0.00370   2.27759
    R5        2.90481   0.00527   0.00000   0.01750   0.01750   2.92232
    R6        2.78117   0.00242   0.00000   0.00657   0.00657   2.78774
    R7        2.11043  -0.01504   0.00000  -0.04527  -0.04527   2.06517
    R8        2.90524   0.00078   0.00000   0.00261   0.00261   2.90785
    R9        2.10813  -0.01191   0.00000  -0.03571  -0.03571   2.07241
   R10        2.10978  -0.01261   0.00000  -0.03792  -0.03792   2.07186
   R11        2.90486  -0.00110   0.00000  -0.00367  -0.00367   2.90120
   R12        2.10883  -0.01178   0.00000  -0.03537  -0.03537   2.07346
   R13        2.10810  -0.01184   0.00000  -0.03552  -0.03552   2.07258
   R14        2.90160  -0.00542   0.00000  -0.01792  -0.01792   2.88368
   R15        2.10924  -0.01117   0.00000  -0.03357  -0.03357   2.07567
   R16        2.10920  -0.01245   0.00000  -0.03740  -0.03740   2.07179
   R17        2.78219   0.00163   0.00000   0.00444   0.00444   2.78663
   R18        2.10709  -0.01281   0.00000  -0.03834  -0.03834   2.06875
   R19        2.10686  -0.00772   0.00000  -0.02310  -0.02310   2.08376
   R20        1.95575  -0.01510   0.00000  -0.03483  -0.03483   1.92092
   R21        1.95565  -0.01455   0.00000  -0.03356  -0.03356   1.92210
   R22        1.95478  -0.01518   0.00000  -0.03493  -0.03493   1.91985
   R23        1.95616  -0.01499   0.00000  -0.03459  -0.03459   1.92157
    A1        1.88627  -0.00235   0.00000  -0.01355  -0.01355   1.87272
    A2        1.94215   0.00059   0.00000   0.00231   0.00193   1.94408
    A3        2.12302   0.00540   0.00000   0.02057   0.02018   2.14320
    A4        2.21801  -0.00599   0.00000  -0.02271  -0.02308   2.19493
    A5        1.97391  -0.00604   0.00000  -0.02618  -0.02654   1.94736
    A6        1.90545  -0.00560   0.00000  -0.02053  -0.02052   1.88493
    A7        1.87925   0.00143   0.00000  -0.03353  -0.03428   1.84497
    A8        1.91939   0.01458   0.00000   0.09258   0.09244   2.01183
    A9        1.90568  -0.00166   0.00000  -0.00618  -0.00759   1.89809
   A10        1.87736  -0.00293   0.00000  -0.00829  -0.00951   1.86785
   A11        1.96759   0.01029   0.00000   0.04718   0.04719   2.01478
   A12        1.91307  -0.00382   0.00000  -0.01725  -0.01784   1.89523
   A13        1.89926  -0.00494   0.00000  -0.03250  -0.03273   1.86653
   A14        1.91113  -0.00204   0.00000   0.00326   0.00330   1.91444
   A15        1.90466  -0.00171   0.00000  -0.00116  -0.00068   1.90398
   A16        1.86526   0.00179   0.00000  -0.00221  -0.00269   1.86257
   A17        1.95372   0.00382   0.00000   0.02132   0.02122   1.97493
   A18        1.90775  -0.00090   0.00000  -0.00287  -0.00290   1.90484
   A19        1.91455  -0.00093   0.00000  -0.00039  -0.00053   1.91402
   A20        1.90871  -0.00107   0.00000  -0.00374  -0.00376   1.90494
   A21        1.90248  -0.00062   0.00000   0.00236   0.00225   1.90473
   A22        1.87496  -0.00046   0.00000  -0.01832  -0.01834   1.85662
   A23        1.95352   0.00452   0.00000   0.02295   0.02290   1.97642
   A24        1.91115  -0.00128   0.00000  -0.00321  -0.00318   1.90797
   A25        1.91187  -0.00009   0.00000   0.00740   0.00743   1.91930
   A26        1.90691  -0.00128   0.00000  -0.00621  -0.00628   1.90062
   A27        1.90492  -0.00217   0.00000  -0.01110  -0.01129   1.89363
   A28        1.87374   0.00012   0.00000  -0.01131  -0.01139   1.86235
   A29        1.93295  -0.00072   0.00000   0.00144   0.00083   1.93377
   A30        1.92785   0.00019   0.00000  -0.02183  -0.02245   1.90541
   A31        1.92210  -0.00420   0.00000  -0.01991  -0.02119   1.90091
   A32        1.90207  -0.00225   0.00000  -0.02781  -0.02788   1.87420
   A33        1.89356   0.00803   0.00000   0.08615   0.08628   1.97985
   A34        1.88424  -0.00090   0.00000  -0.01670  -0.01692   1.86732
   A35        1.92416   0.00057   0.00000   0.00567   0.00568   1.92984
   A36        1.92651  -0.00235   0.00000  -0.01121  -0.01119   1.91532
   A37        1.83601   0.00145   0.00000   0.01322   0.01325   1.84926
   A38        1.93189  -0.00419   0.00000  -0.02188  -0.02190   1.90999
   A39        1.92843  -0.00192   0.00000  -0.00874  -0.00876   1.91967
   A40        1.83640   0.00358   0.00000   0.02537   0.02533   1.86173
    D1       -3.11822  -0.00040   0.00000  -0.02023  -0.02077  -3.13899
    D2        0.01978   0.00066   0.00000   0.02723   0.02778   0.04755
    D3       -1.20540  -0.00450   0.00000  -0.01708  -0.01683  -1.22224
    D4        0.93755   0.00600   0.00000   0.06901   0.06850   1.00605
    D5        2.97078   0.00036   0.00000   0.02998   0.02971   3.00048
    D6        1.94003  -0.00567   0.00000  -0.06785  -0.06724   1.87279
    D7       -2.20020   0.00483   0.00000   0.01825   0.01809  -2.18211
    D8       -0.16698  -0.00081   0.00000  -0.02078  -0.02070  -0.18768
    D9       -1.02898   0.00050   0.00000   0.01468   0.01451  -1.01447
   D10        1.10456   0.00218   0.00000   0.03878   0.03844   1.14300
   D11        3.13870  -0.00061   0.00000   0.00800   0.00825  -3.13624
   D12        3.11901   0.00126   0.00000  -0.00848  -0.00837   3.11064
   D13       -1.03063   0.00294   0.00000   0.01562   0.01556  -1.01507
   D14        1.00350   0.00015   0.00000  -0.01516  -0.01464   0.98887
   D15        1.06294  -0.00273   0.00000  -0.04891  -0.04910   1.01385
   D16       -3.08670  -0.00105   0.00000  -0.02481  -0.02516  -3.11187
   D17       -1.05257  -0.00385   0.00000  -0.05559  -0.05536  -1.10793
   D18        3.08295  -0.00079   0.00000  -0.03074  -0.03083   3.05212
   D19       -1.17309  -0.00008   0.00000  -0.01807  -0.01814  -1.19123
   D20       -1.02503  -0.00239   0.00000  -0.01535  -0.01537  -1.04040
   D21        1.00211  -0.00169   0.00000  -0.00267  -0.00268   0.99943
   D22        1.04852   0.00207   0.00000   0.02429   0.02438   1.07290
   D23        3.07566   0.00277   0.00000   0.03696   0.03707   3.11273
   D24       -3.11029   0.00069   0.00000   0.01372   0.01377  -3.09651
   D25       -0.99288   0.00122   0.00000   0.02100   0.02105  -0.97183
   D26        1.05868  -0.00041   0.00000  -0.00310  -0.00306   1.05562
   D27        1.03827   0.00001   0.00000   0.00122   0.00107   1.03934
   D28       -3.12751   0.00055   0.00000   0.00850   0.00834  -3.11917
   D29       -1.07595  -0.00108   0.00000  -0.01560  -0.01577  -1.09171
   D30       -0.99785  -0.00001   0.00000   0.00270   0.00283  -0.99502
   D31        1.11956   0.00053   0.00000   0.00998   0.01010   1.12966
   D32       -3.11206  -0.00110   0.00000  -0.01412  -0.01401  -3.12607
   D33        3.13817  -0.00020   0.00000  -0.00231  -0.00228   3.13588
   D34       -1.02768   0.00029   0.00000   0.00278   0.00277  -1.02491
   D35        1.02284  -0.00036   0.00000  -0.00848  -0.00857   1.01427
   D36        1.02131  -0.00083   0.00000  -0.01010  -0.01005   1.01125
   D37        3.13865  -0.00034   0.00000  -0.00502  -0.00500   3.13365
   D38       -1.09402  -0.00100   0.00000  -0.01627  -0.01634  -1.11036
   D39       -1.02384   0.00069   0.00000   0.01270   0.01277  -1.01107
   D40        1.09350   0.00118   0.00000   0.01778   0.01783   1.11133
   D41       -3.13917   0.00052   0.00000   0.00653   0.00649  -3.13268
   D42        3.13608   0.00308   0.00000   0.04679   0.04659  -3.10051
   D43       -1.03815  -0.00010   0.00000  -0.00171  -0.00181  -1.03996
   D44        1.04156  -0.00375   0.00000  -0.04866  -0.04827   0.99329
   D45        1.01629   0.00260   0.00000   0.04005   0.03986   1.05616
   D46        3.12525  -0.00057   0.00000  -0.00845  -0.00854   3.11671
   D47       -1.07823  -0.00423   0.00000  -0.05540  -0.05500  -1.13323
   D48       -1.02777   0.00443   0.00000   0.06351   0.06321  -0.96455
   D49        1.08119   0.00125   0.00000   0.01501   0.01481   1.09600
   D50       -3.12229  -0.00240   0.00000  -0.03194  -0.03165   3.12925
   D51       -3.06868  -0.00100   0.00000  -0.04294  -0.04336  -3.11205
   D52       -1.04778  -0.00028   0.00000  -0.03008  -0.03051  -1.07829
   D53        1.09033   0.00070   0.00000   0.00161   0.00135   1.09168
   D54        3.11124   0.00142   0.00000   0.01448   0.01420   3.12544
   D55       -0.95718  -0.00147   0.00000  -0.01127  -0.01058  -0.96776
   D56        1.06373  -0.00075   0.00000   0.00159   0.00227   1.06600
         Item               Value     Threshold  Converged?
 Maximum Force            0.015175     0.000450     NO 
 RMS     Force            0.005268     0.000300     NO 
 Maximum Displacement     0.197807     0.001800     NO 
 RMS     Displacement     0.046617     0.001200     NO 
 Predicted change in Energy=-7.203854D-03
 GradGradGradGradGradGradGradGradGradGradGradGradGradGradGradGradGradGrad

                          Input orientation:                          
 ---------------------------------------------------------------------
 Center     Atomic      Atomic             Coordinates (Angstroms)
 Number     Number       Type             X           Y           Z
 ---------------------------------------------------------------------
      1          8           0       -1.385303    2.641248   -1.043492
      2          6           0       -0.204705    2.936070   -0.448264
      3          6           0        0.958369    2.290633   -1.176791
      4          6           0        0.962590    0.755119   -0.993481
      5          6           0        1.029313    0.263531    0.463123
      6          6           0        1.094208   -1.265746    0.581791
      7          6           0        1.168434   -1.755071    2.025280
      8          7           0        1.285021   -3.224245    2.074751
      9          8           0       -0.127903    3.590065    0.561198
     10          7           0        0.935595    2.757741   -2.575909
     11          1           0       -2.082233    3.082090   -0.535120
     12          1           0        1.860437    2.701835   -0.716918
     13          1           0        0.071962    0.342235   -1.482356
     14          1           0        1.830412    0.370228   -1.541930
     15          1           0        1.910390    0.699961    0.950094
     16          1           0        0.156514    0.630340    1.016804
     17          1           0        0.209180   -1.705304    0.102218
     18          1           0        1.967991   -1.646558    0.040072
     19          1           0        2.063160   -1.339796    2.500100
     20          1           0        0.298859   -1.365191    2.580018
     21          1           0        1.306172   -3.548634    3.037875
     22          1           0        0.461487   -3.648540    1.654847
     23          1           0        1.754625    2.405749   -3.063175
     24          1           0        0.124316    2.376955   -3.056334
 ---------------------------------------------------------------------
                    Distance matrix (angstroms):
                    1          2          3          4          5
     1  O    0.000000
     2  C    1.354632   0.000000
     3  C    2.373499   1.516602   0.000000
     4  C    3.012073   2.533060   1.546423   0.000000
     5  C    3.708611   3.081541   2.608351   1.538768   0.000000
     6  C    4.904500   4.517018   3.969747   2.565677   1.535247
     7  C    5.938565   5.478206   5.163826   3.931455   2.556255
     8  N    7.159474   6.821611   6.410390   5.035211   3.850625
     9  O    2.248630   1.205247   2.426750   3.412203   3.523436
    10  N    2.783603   2.420529   1.475209   2.552509   3.932631
    11  H    0.968760   1.885200   3.206776   3.859513   4.315378
    12  H    3.262691   2.095675   1.092839   2.161556   2.833477
    13  H    2.757115   2.806043   2.162254   1.096672   2.169702
    14  H    3.968223   3.452732   2.140500   1.096381   2.161801
    15  H    4.313302   3.380713   2.821386   2.163066   1.097228
    16  H    3.265849   2.755594   2.865554   2.169465   1.096763
    17  H    4.769437   4.692194   4.262001   2.796759   2.163142
    18  H    5.550133   5.095053   4.242825   2.801270   2.169915
    19  H    6.348043   5.667371   5.283948   4.219601   2.790837
    20  H    5.658425   5.284404   5.283334   4.207868   2.769033
    21  H    7.887726   7.515804   7.209814   5.906960   4.608536
    22  H    7.088942   6.944349   6.598397   5.163038   4.128793
    23  H    3.740819   3.310283   2.050786   2.763247   4.189267
    24  H    2.529888   2.687544   2.058101   2.754708   4.203827
                    6          7          8          9         10
     6  C    0.000000
     7  C    1.525978   0.000000
     8  N    2.470032   1.474623   0.000000
     9  O    5.007283   5.691617   7.121939   0.000000
    10  N    5.117096   6.449080   7.585176   3.415441   0.000000
    11  H    5.499178   6.365581   7.610499   2.297685   3.657501
    12  H    4.244462   5.278497   6.575937   2.525081   2.077091
    13  H    2.809144   4.231365   5.181149   3.842455   2.788618
    14  H    2.780035   4.204771   5.128164   4.315727   2.751369
    15  H    2.160047   2.780954   4.129810   3.557890   4.197307
    16  H    2.159549   2.780502   4.153385   3.008063   4.247399
    17  H    1.098397   2.149608   2.712103   5.325901   5.255361
    18  H    1.096346   2.142923   2.663731   5.664501   5.225615
    19  H    2.150410   1.094733   2.082683   5.732681   6.620203
    20  H    2.152994   1.102679   2.164230   5.367712   6.632314
    21  H    3.359890   2.064265   1.016505   7.691003   8.451170
    22  H    2.688772   2.054804   1.017131   7.344444   7.691848
    23  H    5.215535   6.599123   7.636468   4.252364   1.015941
    24  H    5.238885   6.632241   7.684316   3.823845   1.016849
                   11         12         13         14         15
    11  H    0.000000
    12  H    3.965135   0.000000
    13  H    3.611734   3.058146   0.000000
    14  H    4.865867   2.473447   1.759681   0.000000
    15  H    4.880722   2.605557   3.069951   2.515017   0.000000
    16  H    3.664906   3.193782   2.517133   3.068667   1.756525
    17  H    5.345645   4.777082   2.592705   3.104746   3.065666
    18  H    6.252622   4.415102   3.141339   2.566921   2.517461
    19  H    6.778637   5.169631   4.759628   4.395038   2.566411
    20  H    5.928912   5.463426   4.412445   4.727345   3.085212
    21  H    8.259182   7.312596   6.090536   6.050365   4.772260
    22  H    7.521161   6.921676   5.091175   5.314493   4.637398
    23  H    4.644350   2.367232   3.096520   2.542298   4.363521
    24  H    3.423828   2.931302   2.572981   3.038279   4.696152
                   16         17         18         19         20
    16  H    0.000000
    17  H    2.508879   0.000000
    18  H    3.069157   1.760889   0.000000
    19  H    3.117194   3.052979   2.480907   0.000000
    20  H    2.538906   2.502641   3.052294   1.766292   0.000000
    21  H    4.782287   3.635841   3.611471   2.396080   2.447802
    22  H    4.336926   2.500097   2.980769   2.934299   2.469023
    23  H    4.727819   5.413767   5.108509   6.713742   6.941533
    24  H    4.431947   5.162217   5.401437   6.960410   6.767761
                   21         22         23         24
    21  H    0.000000
    22  H    1.623650   0.000000
    23  H    8.536897   7.783724   0.000000
    24  H    8.581886   7.656076   1.630578   0.000000
 Stoichiometry    C6H14N2O2
 Framework group  C1[X(C6H14N2O2)]
 Deg. of freedom    66
 Full point group                 C1      NOp   1
 Largest Abelian subgroup         C1      NOp   1
 Largest concise Abelian subgroup C1      NOp   1
                         Standard orientation:                         
 ---------------------------------------------------------------------
 Center     Atomic      Atomic             Coordinates (Angstroms)
 Number     Number       Type             X           Y           Z
 ---------------------------------------------------------------------
      1          8           0        2.426993   -0.823284    1.259090
      2          6           0        2.161533   -0.762336   -0.067878
      3          6           0        1.729007    0.631060   -0.481943
      4          6           0        0.326772    0.978672    0.069715
      5          6           0       -0.804412    0.024243   -0.351350
      6          6           0       -2.182315    0.452783    0.172786
      7          6           0       -3.306761   -0.488082   -0.250299
      8          7           0       -4.610299    0.003049    0.233531
      9          8           0        2.222516   -1.724830   -0.790725
     10          7           0        2.803061    1.571259   -0.109551
     11          1           0        2.698046   -1.732008    1.457202
     12          1           0        1.682814    0.614345   -1.573677
     13          1           0        0.383160    1.024791    1.163966
     14          1           0        0.089099    1.991339   -0.276795
     15          1           0       -0.837863   -0.032930   -1.446577
     16          1           0       -0.583732   -0.989403    0.004614
     17          1           0       -2.154304    0.503044    1.269676
     18          1           0       -2.420896    1.462000   -0.182930
     19          1           0       -3.355181   -0.521739   -1.343443
     20          1           0       -3.067486   -1.508216    0.093179
     21          1           0       -5.353165   -0.640368   -0.026178
     22          1           0       -4.609921    0.033954    1.250192
     23          1           0        2.573852    2.499515   -0.452975
     24          1           0        2.867225    1.642394    0.902775
 ---------------------------------------------------------------------
 Rotational constants (GHZ):      2.5125612      0.4889671      0.4501692
 Standard basis: 6-311++G(d,p) (5D, 7F)
 There are   328 symmetry adapted cartesian basis functions of A   symmetry.
 There are   318 symmetry adapted basis functions of A   symmetry.
   318 basis functions,   486 primitive gaussians,   328 cartesian basis functions
    40 alpha electrons       40 beta electrons
       nuclear repulsion energy       546.9667306970 Hartrees.
 NAtoms=   24 NActive=   24 NUniq=   24 SFac= 1.00D+00 NAtFMM=   60 NAOKFM=F Big=F
 Integral buffers will be    131072 words long.
 Raffenetti 2 integral format.
 Two-electron integral symmetry is turned on.
 One-electron integrals computed using PRISM.
 NBasis=   318 RedAO= T EigKep=  3.56D-06  NBF=   318
 NBsUse=   318 1.00D-06 EigRej= -1.00D+00 NBFU=   318
 Initial guess from the checkpoint file:  "Anth_322.chk"
 B after Tr=     0.000000    0.000000    0.000000
         Rot=    0.999990   -0.003319   -0.000166    0.003116 Ang=  -0.52 deg.
 ExpMin= 3.60D-02 ExpMax= 8.59D+03 ExpMxC= 1.30D+03 IAcc=3 IRadAn=         5 AccDes= 0.00D+00
 Harris functional with IExCor=  402 and IRadAn=       5 diagonalized for initial guess.
 HarFok:  IExCor=  402 AccDes= 0.00D+00 IRadAn=         5 IDoV= 1 UseB2=F ITyADJ=14
 ICtDFT=  3500011 ScaDFX=  1.000000  1.000000  1.000000  1.000000
 FoFCou: FMM=F IPFlag=           0 FMFlag=      100000 FMFlg1=           0
         NFxFlg=           0 DoJE=T BraDBF=F KetDBF=T FulRan=T
         wScrn=  0.000000 ICntrl=     500 IOpCl=  0 I1Cent=   200000004 NGrid=           0
         NMat0=    1 NMatS0=      1 NMatT0=    0 NMatD0=    1 NMtDS0=    0 NMtDT0=    0
 Petite list used in FoFCou.
 Keep R1 ints in memory in canonical form, NReq=1304491087.
 Requested convergence on RMS density matrix=1.00D-08 within 128 cycles.
 Requested convergence on MAX density matrix=1.00D-06.
 Requested convergence on             energy=1.00D-06.
 No special actions if energy rises.
 SCF Done:  E(RB3LYP) =  -497.189207639     A.U. after   12 cycles
            NFock= 12  Conv=0.40D-08     -V/T= 2.0042
[...]
    24  H   -0.000119   0.000033  -0.000729   0.365847   0.001239   0.011543
              13         14         15         16         17         18
     1  O    0.005446  -0.004029   0.000489  -0.010357  -0.001699   0.000546
     2  C   -0.044655  -0.033338  -0.033429  -0.061509  -0.011812   0.019332
     3  C   -0.053467   0.105203  -0.016241   0.133289   0.004814  -0.017069
     4  C    0.514117   0.331494  -0.010274  -0.147415   0.011176  -0.028902
     5  C   -0.099399  -0.049501   0.491162   0.462376  -0.056332  -0.035705
     6  C   -0.016425   0.004264  -0.178424  -0.023726   0.341912   0.527368
     7  C   -0.000723  -0.004678   0.066698  -0.030204   0.013468  -0.153219
     8  N   -0.001385  -0.001974  -0.000591  -0.008960  -0.004251   0.010112
     9  O   -0.001161   0.000565  -0.005438   0.000866   0.000544  -0.000182
    10  N    0.013104  -0.032246  -0.002207  -0.011198  -0.001592  -0.001273
    11  H   -0.000930  -0.000937  -0.000100  -0.003728   0.000063   0.000100
    12  H    0.020638  -0.023202   0.008358  -0.000368   0.001116  -0.001588
    13  H    0.579206  -0.074233   0.015372  -0.023337  -0.002767   0.003909
    14  H   -0.074233   0.635514  -0.022298   0.026214  -0.003264  -0.000155
    15  H    0.015372  -0.022298   0.646149  -0.088358   0.026968  -0.029329
    16  H   -0.023337   0.026214  -0.088358   0.647301  -0.023812   0.012290
    17  H   -0.002767  -0.003264   0.026968  -0.023812   0.700992  -0.097466
    18  H    0.003909  -0.000155  -0.029329   0.012290  -0.097466   0.615900
    19  H   -0.001118  -0.000814   0.010018  -0.001739   0.026377  -0.020007
    20  H    0.003699   0.000934  -0.012190   0.015325  -0.057425   0.029380
    21  H   -0.000018  -0.000558   0.001495  -0.001312   0.001102   0.000969
    22  H    0.000212   0.000287  -0.000982   0.000380   0.007671  -0.000161
    23  H    0.000080   0.013721  -0.000142   0.000381  -0.000446   0.000165
    24  H    0.003686  -0.004867   0.000208   0.000045   0.000962  -0.000292
              19         20         21         22         23         24
     1  O   -0.000157   0.000811   0.000004   0.000004  -0.004187  -0.001914
     2  C    0.002316   0.004168   0.000020   0.000942   0.007565  -0.036632
     3  C    0.000451   0.000926  -0.000480  -0.001257  -0.051684   0.076021
     4  C   -0.009679   0.012367  -0.004633   0.004584   0.015596  -0.043558
     5  C   -0.004525  -0.074720   0.002940   0.000199  -0.012030  -0.001871
     6  C   -0.084622   0.140324  -0.032523   0.048019   0.007264  -0.001199
     7  C    0.452356   0.250108  -0.002988  -0.107864   0.001418  -0.000119
     8  N   -0.045157  -0.114990   0.389109   0.397387   0.000000   0.000033
     9  O    0.000440  -0.000557  -0.000003  -0.000010  -0.001684  -0.000729
    10  N   -0.000110   0.000000  -0.000004   0.000054   0.378973   0.365847
    11  H    0.000064  -0.000008   0.000001   0.000005  -0.000327   0.001239
    12  H    0.000332  -0.000134   0.000000  -0.000050  -0.017235   0.011543
    13  H   -0.001118   0.003699  -0.000018   0.000212   0.000080   0.003686
    14  H   -0.000814   0.000934  -0.000558   0.000287   0.013721  -0.004867
    15  H    0.010018  -0.012190   0.001495  -0.000982  -0.000142   0.000208
    16  H   -0.001739   0.015325  -0.001312   0.000380   0.000381   0.000045
    17  H    0.026377  -0.057425   0.001102   0.007671  -0.000446   0.000962
    18  H   -0.020007   0.029380   0.000969  -0.000161   0.000165  -0.000292
    19  H    0.616240  -0.090807  -0.013124   0.012611  -0.000057   0.000065
    20  H   -0.090807   0.763492   0.002889  -0.004002  -0.000007  -0.000122
    21  H   -0.013124   0.002889   0.482346  -0.063057   0.000004   0.000003
    22  H    0.012611  -0.004002  -0.063057   0.503736   0.000000  -0.000005
    23  H   -0.000057  -0.000007   0.000004   0.000000   0.485124  -0.062200
    24  H    0.000065  -0.000122   0.000003  -0.000005  -0.062200   0.433597
 Mulliken charges:
               1
     1  O   -0.146064
     2  C   -0.266302
     3  C   -0.202955
     4  C   -0.321373
     5  C    0.061255
     6  C   -0.504711
     7  C   -0.429436
     8  N   -0.327153
     9  O   -0.224953
    10  N   -0.247324
    11  H    0.292198
    12  H    0.238880
    13  H    0.160150
    14  H    0.137900
    15  H    0.133087
    16  H    0.137556
    17  H    0.123699
    18  H    0.165280
    19  H    0.150647
    20  H    0.130538
    21  H    0.237818
    22  H    0.201297
    23  H    0.239706
    24  H    0.260260
 Sum of Mulliken charges =   0.00000
 Mulliken charges with hydrogens summed into heavy atoms:
               1
     1  O    0.146134
     2  C   -0.266302
     3  C    0.035925
     4  C   -0.023323
     5  C    0.331899
     6  C   -0.215732
     7  C   -0.148252
     8  N    0.111961
     9  O   -0.224953
    10  N    0.252641
 Electronic spatial extent (au):  <R**2>=           2507.9660
 Charge=              0.0000 electrons
 Dipole moment (field-independent basis, Debye):
    X=             -1.2505    Y=              0.4738    Z=              1.9220  Tot=              2.3414
 Quadrupole moment (field-independent basis, Debye-Ang):
   XX=            -69.2619   YY=            -62.3838   ZZ=            -61.1339
   XY=              7.9666   XZ=              4.0598   YZ=             -5.2955
 Traceless Quadrupole moment (field-independent basis, Debye-Ang):
   XX=             -5.0021   YY=              1.8761   ZZ=              3.1260
   XY=              7.9666   XZ=              4.0598   YZ=             -5.2955
 Octapole moment (field-independent basis, Debye-Ang**2):
  XXX=            -17.5348  YYY=              7.4527  ZZZ=              6.2839  XYY=             16.5193
  XXY=            -45.1879  XXZ=             27.2239  XZZ=             -1.4825  YZZ=             -1.2918
  YYZ=             11.7423  XYZ=            -11.5801
 Hexadecapole moment (field-independent basis, Debye-Ang**3):
 XXXX=          -2630.0097 YYYY=           -424.0919 ZZZZ=           -206.2157 XXXY=            122.3805
 XXXZ=             34.6864 YYYX=             21.0683 YYYZ=            -33.3077 ZZZX=              3.6183
 ZZZY=            -10.8504 XXYY=           -511.7708 XXZZ=           -428.5589 YYZZ=           -102.8221
 XXYZ=            -20.3972 YYXZ=             36.8625 ZZXY=             -4.4882
 N-N= 5.471247707484D+02 E-N=-2.255326741697D+03  KE= 4.951526438226D+02

 **********************************************************************

            Electrostatic Properties Using The SCF Density

 **********************************************************************

       Atomic Center    1 is at   2.528245 -0.802142  1.235287
       Atomic Center    2 is at   2.155801 -0.764457 -0.070355
       Atomic Center    3 is at   1.715670  0.631281 -0.488324
       Atomic Center    4 is at   0.320415  0.964597  0.092408
       Atomic Center    5 is at  -0.808145  0.027290 -0.354436
       Atomic Center    6 is at  -2.178372  0.449335  0.187516
       Atomic Center    7 is at  -3.312020 -0.475444 -0.256417
       Atomic Center    8 is at  -4.601712 -0.004631  0.264762
       Atomic Center    9 is at   2.158007 -1.743454 -0.771391
       Atomic Center   10 is at   2.776699  1.581302 -0.137242
       Atomic Center   11 is at   2.804303 -1.710228  1.430143
       Atomic Center   12 is at   1.647726  0.595620 -1.578003
       Atomic Center   13 is at   0.390537  0.977032  1.186242
       Atomic Center   14 is at   0.085285  1.989809 -0.217934
       Atomic Center   15 is at  -0.842542  0.000453 -1.450688
       Atomic Center   16 is at  -0.589683 -0.998415 -0.035491
       Atomic Center   17 is at  -2.143752  0.471537  1.285126
       Atomic Center   18 is at  -2.415817  1.469056 -0.134375
       Atomic Center   19 is at  -3.375174 -0.469309 -1.349674
       Atomic Center   20 is at  -3.071520 -1.509363  0.040325
       Atomic Center   21 is at  -5.366917 -0.566117 -0.093571
       Atomic Center   22 is at  -4.628896 -0.075848  1.277427
       Atomic Center   23 is at   2.555285  2.504211 -0.496275
       Atomic Center   24 is at   2.876141  1.654021  0.870593
 -----------------------------------------------------------------

              Electrostatic Properties (Atomic Units)

 -----------------------------------------------------------------
    Center     Electric         -------- Electric Field --------
               Potential          X             Y             Z
 -----------------------------------------------------------------
    1 Atom    -22.314323      0.000420      0.032995      0.028369
    2 Atom    -14.639100     -0.004301      0.013785     -0.006292
    3 Atom    -14.720839     -0.005715     -0.000523     -0.001747
    4 Atom    -14.764927     -0.000452     -0.002025     -0.001254
    5 Atom    -14.770283     -0.001167      0.001718      0.001402
    6 Atom    -14.776297     -0.000216     -0.001590     -0.002100
    7 Atom    -14.748680      0.005402     -0.000003     -0.000458
    8 Atom    -18.416267     -0.002378      0.033328     -0.010819
    9 Atom    -22.374884     -0.000139     -0.040889     -0.031609
   10 Atom    -18.404882      0.029639     -0.011798     -0.013650
   11 Atom     -0.951819      0.007349     -0.023003      0.006261
   12 Atom     -1.108125     -0.000973     -0.000505     -0.018755
   13 Atom     -1.116543      0.001011      0.000314      0.018009
   14 Atom     -1.114369     -0.003902      0.016599     -0.005015
   15 Atom     -1.124321     -0.000444     -0.000525     -0.017764
   16 Atom     -1.124525      0.003698     -0.016716      0.005091
   17 Atom     -1.125875      0.000542      0.000533      0.017591
   18 Atom     -1.130467     -0.004146      0.016855     -0.005222
   19 Atom     -1.126415     -0.001171      0.000204     -0.018006
   20 Atom     -1.133158      0.003443     -0.016452      0.004705
   21 Atom     -1.065330     -0.016263     -0.011222     -0.007605
   22 Atom     -1.065885     -0.000840     -0.001053      0.020930
   23 Atom     -1.052338     -0.004015      0.019312     -0.007705
   24 Atom     -1.055514      0.002550      0.001575      0.020962
 -----------------------------------------------------------------
 -----------------------------------------------------
    Center         ---- Electric Field Gradient ----
                     XX            YY            ZZ
 -----------------------------------------------------
    1 Atom    -1236.153457  -1237.307902  -1237.607234
    2 Atom     -501.810097   -501.030143   -501.506182
    3 Atom     -500.410511   -500.475691   -500.209271
    4 Atom     -500.491460   -500.442650   -500.412790
    5 Atom     -500.314392   -500.268274   -500.250028
    6 Atom     -500.390951   -500.351431   -500.356849
    7 Atom     -500.447189   -500.248046   -500.222368
    8 Atom     -813.423034   -811.917989   -813.240379
    9 Atom    -1238.695648  -1237.994344  -1237.368396
   10 Atom     -812.230019   -813.277207   -813.044441
   11 Atom       -1.536959     -2.075656     -1.551547
   12 Atom       -1.718736     -1.723007     -2.153457
   13 Atom       -1.707742     -1.696891     -2.138927
   14 Atom       -1.727448     -2.086556     -1.735083
   15 Atom       -1.708965     -1.699553     -2.143151
   16 Atom       -1.729478     -2.088421     -1.739327
   17 Atom       -1.711512     -1.701335     -2.144568
   18 Atom       -1.722649     -2.085388     -1.739624
   19 Atom       -1.728696     -1.711650     -2.159579
   20 Atom       -1.748085     -2.096093     -1.752342
   21 Atom       -1.983299     -1.787386     -1.726934
   22 Atom       -1.665397     -1.602366     -2.232656
   23 Atom       -1.638199     -2.125293     -1.711053
   24 Atom       -1.601675     -1.645195     -2.203276
 -----------------------------------------------------
 -----------------------------------------------------
    Center         ---- Electric Field Gradient ----
                     XY            XZ            YZ
 -----------------------------------------------------
    1 Atom        0.595956     -0.660585      0.772557
    2 Atom       -0.159205      0.093556      0.058920
    3 Atom       -0.095124     -0.052457     -0.001860
    4 Atom        0.019981      0.031920     -0.035552
    5 Atom       -0.023810      0.000078     -0.031399
    6 Atom       -0.008490      0.017807     -0.036861
    7 Atom        0.077241      0.104797     -0.055445
    8 Atom       -0.155274      0.113595     -0.427759
    9 Atom       -0.456259      0.634599     -0.936303
   10 Atom       -0.531120     -0.580667      0.147146
   11 Atom        0.182369     -0.051965      0.131255
   12 Atom       -0.003977     -0.030413     -0.009666
   13 Atom       -0.001530     -0.027780     -0.003789
   14 Atom        0.085832     -0.025343      0.121335
   15 Atom       -0.003432     -0.014304     -0.007826
   16 Atom        0.080252     -0.027647      0.124409
   17 Atom       -0.003251     -0.013531     -0.006092
   18 Atom        0.085412     -0.028010      0.124513
   19 Atom        0.000908     -0.023632      0.002732
   20 Atom        0.084952     -0.022114      0.111765
   21 Atom       -0.255632     -0.147724     -0.136449
   22 Atom       -0.008041      0.012861      0.034589
   23 Atom        0.105263     -0.074832      0.191818
   24 Atom       -0.026572     -0.066846     -0.036475
 -----------------------------------------------------
 -----------------------------------------------------
    Center         ---- Electric Field Gradient ----
                   ----       Eigenvalues       ----
 -----------------------------------------------------
    1 Atom    -1238.571326  -1236.672167  -1235.825100
    2 Atom     -501.870680   -501.480026   -500.995716
    3 Atom     -500.546767   -500.354071   -500.194635
    4 Atom     -500.516698   -500.443714   -500.386489
    5 Atom     -500.326776   -500.281889   -500.224029
    6 Atom     -500.400564   -500.385832   -500.312835
    7 Atom     -500.519906   -500.227257   -500.170441
    8 Atom     -813.479785   -813.329824   -811.771793
    9 Atom    -1238.964697  -1238.668595  -1236.425096
   10 Atom     -813.530056   -813.283443   -811.738168
   11 Atom       -2.163935     -1.522107     -1.478121
   12 Atom       -2.155802     -1.724210     -1.715188
   13 Atom       -2.140743     -1.706137     -1.696679
   14 Atom       -2.143615     -1.708362     -1.697109
   15 Atom       -2.143764     -1.709493     -1.698413
   16 Atom       -2.145529     -1.712432     -1.699264
   17 Atom       -2.145076     -1.711963     -1.700375
   18 Atom       -2.144702     -1.703549     -1.699409
   19 Atom       -2.160888     -1.727440     -1.711596
   20 Atom       -2.148462     -1.729655     -1.718403
   21 Atom       -2.236973     -1.663084     -1.597562
   22 Atom       -2.234859     -1.665908     -1.599654
   23 Atom       -2.227207     -1.656563     -1.590775
   24 Atom       -2.213317     -1.651290     -1.585539
 -----------------------------------------------------
 -----------------------------------------------------
    Center         ---- Electric Field Gradient ----
                       ( tensor representation )
                   3XX-RR        3YY-RR        3ZZ-RR
 -----------------------------------------------------
    1 Atom        0.869407     -0.285037     -0.584369
    2 Atom       -0.361289      0.418664     -0.057375
    3 Atom       -0.045353     -0.110533      0.155886
    4 Atom       -0.042494      0.006317      0.036177
    5 Atom       -0.036827      0.009290      0.027537
    6 Atom       -0.024541      0.014980      0.009562
    7 Atom       -0.141321      0.057821      0.083500
    8 Atom       -0.562567      0.942479     -0.379912
    9 Atom       -0.676185      0.025118      0.651067
   10 Atom        0.620537     -0.426652     -0.193885
   11 Atom        0.184429     -0.354269      0.169840
   12 Atom        0.146331      0.142059     -0.288391
   13 Atom        0.140111      0.150963     -0.291073
   14 Atom        0.122248     -0.236860      0.114613
   15 Atom        0.141591      0.151003     -0.292595
   16 Atom        0.122931     -0.236012      0.113082
   17 Atom        0.140960      0.151136     -0.292096
   18 Atom        0.126571     -0.236168      0.109596
   19 Atom        0.137945      0.154992     -0.292937
   20 Atom        0.117422     -0.230586      0.113165
   21 Atom       -0.150759      0.045154      0.105606
   22 Atom        0.168076      0.231107     -0.399183
   23 Atom        0.186649     -0.300445      0.113796
   24 Atom        0.215040      0.171520     -0.386560
 -----------------------------------------------------
 -----------------------------------------------------
    Center         ---- Electric Field Gradient ----
                       ( tensor representation )
                   ----       Eigenvalues       ----
 -----------------------------------------------------
    1 Atom       -1.548462      0.350697      1.197764
    2 Atom       -0.421872     -0.031219      0.453091
    3 Atom       -0.181609      0.011087      0.170523
    4 Atom       -0.067731      0.005253      0.062478
    5 Atom       -0.049211     -0.004324      0.053535
    6 Atom       -0.034153     -0.019422      0.053575
    7 Atom       -0.214038      0.078611      0.135427
    8 Atom       -0.619318     -0.469357      1.088675
    9 Atom       -0.945234     -0.649133      1.594367
   10 Atom       -0.679500     -0.432887      1.112387
   11 Atom       -0.442547      0.199281      0.243266
   12 Atom       -0.290735      0.140857      0.149878
   13 Atom       -0.292890      0.141716      0.151174
   14 Atom       -0.293920      0.141333      0.152587
   15 Atom       -0.293207      0.141064      0.152143
   16 Atom       -0.293120      0.139976      0.153144
   17 Atom       -0.292605      0.140509      0.152096
   18 Atom       -0.295482      0.145671      0.149811
   19 Atom       -0.294247      0.139201      0.155045
   20 Atom       -0.282955      0.135852      0.147103
   21 Atom       -0.404433      0.169456      0.234978
   22 Atom       -0.401385      0.167566      0.233820
   23 Atom       -0.402359      0.168286      0.234073
   24 Atom       -0.396601      0.165425      0.231176
 -----------------------------------------------------

 Test job not archived.
 1|1|UNPC-NP-ALMACH|FOpt|RB3LYP|6-311++G(d,p)|C6H14N2O2|HERA|05-Aug-201
 8|0||# RB3LYP/6-311++G** Opt Test prop=EFG||C6N2H14O2||0,1|O,-1.391602
 7461,2.70873782,-1.1165030698|C,-0.2273594657,2.9219609366,-0.45023674
 68|C,0.9541150339,2.2833666677,-1.1663470824|C,0.9394405975,0.74614465
 78,-0.9879730162|C,1.0289245804,0.2615138004,0.4642621237|C,1.08865845
 68,-1.2659636094,0.5765180498|C,1.1835223849,-1.7600687609,2.020233365
 5|N,1.2702364518,-3.2253916298,2.0638983494|O,-0.1803416843,3.52166455
 04,0.5928527496|N,0.9634855253,2.7461846331,-2.5582128065|H,-2.0951085
 742,3.1474821012,-0.6151247799|H,1.8406906893,2.6897256542,-0.67426380
 68|H,0.036535296,0.3471835527,-1.464561518|H,1.7922099688,0.3537431955
 ,-1.5549502473|H,1.9188571624,0.6964914846,0.9359464477|H,0.1722102339
 ,0.6362579211,1.036214398|H,0.1950762784,-1.6998666126,0.1078183474|H,
 1.9483960428,-1.653821245,0.0195245835|H,2.0945344669,-1.3612062184,2.
 4787111545|H,0.3361209501,-1.3547017035,2.5968380277|H,1.4160405621,-3
 .5541265389,3.0125193376|H,0.4084294177,-3.647516432,1.7316322591|H,1.
 7983372575,2.417749255,-3.0323890191|H,0.1574821138,2.3891715205,-3.06
 20071006||Version=EM64W-G09RevD.01|State=1-A|HF=-497.1896041|RMSD=4.53
 8e-009|RMSF=7.797e-006|Dipole=-0.4195366,-0.7929053,-0.2094034|Quadrup
 ole=4.9874323,-8.5058063,3.518374,2.3064975,-1.0443659,-3.0115587|PG=C
 01 [X(C6H14N2O2)]||@


 ALMOST ANYTHING IS EASIER TO GET INTO THAN OUT OF.

                         -- AGNES ALLEN'S LAW FROM
                PAUL DICKSON'S "THE OFFICIAL RULES"
 Job cpu time:       0 days  0 hours 11 minutes  8.0 seconds.
 File lengths (MBytes):  RWF=     47 Int=      0 D2E=      0 Chk=      8 Scr=      1
 Normal termination of Gaussian 09 at Sun Aug 05 00:43:31 2018.
