 Entering Link 1 = C:\G09W\l1.exe PID=     29068.
  
 Copyright (c) 1988,1990,1992,1993,1995,1998,2003,2009,2013,
            Gaussian, Inc.  All Rights Reserved.
  
 This is part of the Gaussian(R) 09 program.  It is based on
 the Gaussian(R) 03 system (copyright 2003, Gaussian, Inc.),
 the Gaussian(R) 98 system (copyright 1998, Gaussian, Inc.),
 the Gaussian(R) 94 system (copyright 1995, Gaussian, Inc.),
 the Gaussian 92(TM) system (copyright 1992, Gaussian, Inc.),
 the Gaussian 90(TM) system (copyright 1990, Gaussian, Inc.),
 the Gaussian 88(TM) system (copyright 1988, Gaussian, Inc.),
 the Gaussian 86(TM) system (copyright 1986, Carnegie Mellon
 University), and the Gaussian 82(TM) system (copyright 1983,
 Carnegie Mellon University). Gaussian is a federally registered
 trademark of Gaussian, Inc.
  
 This software contains proprietary and confidential information,
 including trade secrets, belonging to Gaussian, Inc.
  
 This software is provided under written license and may be
 used, copied, transmitted, or stored only in accord with that
 written license.
  
 The following legend is applicable only to US Government
 contracts under FAR:
  
                    RESTRICTED RIGHTS LEGEND
  
 Use, reproduction and disclosure by the US Government is
 subject to restrictions as set forth in subparagraphs (a)
 and (c) of the Commercial Computer Software - Restricted
 Rights clause in FAR 52.227-19.
  
 Gaussian, Inc.
 340 Quinnipiac St., Bldg. 40, Wallingford CT 06492
  
  
 ---------------------------------------------------------------
 Warning -- This program may not be used in any manner that
 competes with the business of Gaussian, Inc. or will provide
 assistance to any competitor of Gaussian, Inc.  The licensee
 of this program is prohibited from giving any competitor of
 Gaussian, Inc. access to this program.  By using this program,
 the user acknowledges that Gaussian, Inc. is engaged in the
 business of creating and licensing software in the field of
 computational chemistry and represents and warrants to the
 licensee that it is not a competitor of Gaussian, Inc. and that
 it will not use this program in any manner prohibited above.
 ---------------------------------------------------------------
  

 Cite this work as:
 Gaussian 09, Revision D.01,
 M. J. Frisch, G. W. Trucks, H. B. Schlegel, G. E. Scuseria, 
 M. A. Robb, J. R. Cheeseman, G. Scalmani, V. Barone, B. Mennucci, 
 G. A. Petersson, H. Nakatsuji, M. Caricato, X. Li, H. P. Hratchian, 
 A. F. Izmaylov, J. Bloino, G. Zheng, J. L. Sonnenberg, M. Hada, 
 M. Ehara, K. Toyota, R. Fukuda, J. Hasegawa, M. Ishida, T. Nakajima, 
 Y. Honda, O. Kitao, H. Nakai, T. Vreven, J. A. Montgomery, Jr., 
 J. E. Peralta, F. Ogliaro, M. Bearpark, J. J. Heyd, E. Brothers, 
 K. N. Kudin, V. N. Staroverov, T. Keith, R. Kobayashi, J. Normand, 
 K. Raghavachari, A. Rendell, J. C. Burant, S. S. Iyengar, J. Tomasi, 
 M. Cossi, N. Rega, J. M. Millam, M. Klene, J. E. Knox, J. B. Cross, 
 V. Bakken, C. Adamo, J. Jaramillo, R. Gomperts, R. E. Stratmann, 
 O. Yazyev, A. J. Austin, R. Cammi, C. Pomelli, J. W. Ochterski, 
 R. L. Martin, K. Morokuma, V. G. Zakrzewski, G. A. Voth, 
 P. Salvador, J. J. Dannenberg, S. Dapprich, A. D. Daniels, 
 O. Farkas, J. B. Foresman, J. V. Ortiz, J. Cioslowski, 
 and D. J. Fox, Gaussian, Inc., Wallingford CT, 2013.
 
 ******************************************
 Gaussian 09:  EM64W-G09RevD.01 13-Apr-2013
                04-Aug-2018 
 ******************************************
 %Chk=Anth_337.chk
 %Mem=64GB
 %NProcShared=20
 Will use up to   20 processors via shared memory.
 -------------------------------------
 # RB3LYP/6-311++G** Opt Test prop=EFG
 -------------------------------------
 1/14=-1,18=20,19=15,26=3,38=1/1,3;
 2/9=110,12=2,17=6,18=5,40=1/2;
 3/5=4,6=6,7=1111,11=2,16=1,25=1,30=1,71=1,74=-5,116=1/1,2,3;
 4//1;
 5/5=2,38=5/2;
 6/7=2,8=2,9=2,10=2,14=1,28=1/1,2;
 7//1,2,3,16;
 1/14=-1,18=20,19=15,26=3/3(2);
 2/9=110/2;
 99//99;
 2/9=110/2;
 3/5=4,6=6,7=1111,11=2,16=1,25=1,30=1,71=1,74=-5,116=1/1,2,3;
 4/5=5,16=3,69=1/1;
 5/5=2,38=5/2;
 7//1,2,3,16;
 1/14=-1,18=20,19=15,26=3/3(-5);
 2/9=110/2;
 6/7=2,8=2,9=2,10=2,14=1,19=2,28=1/1,2;
 99/9=1/99;
 --------
 C6NH13O2
 --------
 Symbolic Z-matrix:
 Charge =  0 Multiplicity = 1
 C                    -2.09916  -0.37315  -0.83355 
 C                    -0.89722  -1.31926  -0.71923 
 C                     0.48171  -0.661    -0.48972 
 C                     0.58117   0.13596   0.82945 
 C                     2.00447   0.35667   1.31433 
 O                     2.03127   1.23356   2.33897 
 O                     3.02137  -0.14248   0.8967 
 N                    -0.09444   1.44138   0.73314 
 C                     0.93587   0.15954  -1.70961 
 H                    -3.02137  -0.9408   -1.09779 
 H                    -2.31143   0.14334   0.12855 
 H                    -1.95087   0.39588  -1.62363 
 H                    -0.84602  -1.93066  -1.65315 
 H                    -1.09906  -2.03984   0.11041 
 H                     1.19761  -1.52089  -0.40209 
 H                     0.08403  -0.45037   1.64045 
 H                     2.9518    1.33063   2.63215 
 H                     0.01092   1.96724   1.61884 
 H                     0.34933   2.03984   0.0155 
 H                     1.96504   0.56077  -1.57034 
 H                     0.94796  -0.46461  -2.63215 
 H                     0.26739   1.02618  -1.90504 
 

 GradGradGradGradGradGradGradGradGradGradGradGradGradGradGradGradGradGrad
 Berny optimization.
 Initialization pass.
                           ----------------------------
                           !    Initial Parameters    !
                           ! (Angstroms and Degrees)  !
 --------------------------                            --------------------------
 ! Name  Definition              Value          Derivative Info.                !
 --------------------------------------------------------------------------------
 ! R1    R(1,2)                  1.5339         estimate D2E/DX2                !
 ! R2    R(1,10)                 1.1147         estimate D2E/DX2                !
 ! R3    R(1,11)                 1.1124         estimate D2E/DX2                !
 ! R4    R(1,12)                 1.1125         estimate D2E/DX2                !
 ! R5    R(2,3)                  1.5451         estimate D2E/DX2                !
 ! R6    R(2,13)                 1.1174         estimate D2E/DX2                !
 ! R7    R(2,14)                 1.1173         estimate D2E/DX2                !
 ! R8    R(3,4)                  1.5444         estimate D2E/DX2                !
 ! R9    R(3,9)                  1.5387         estimate D2E/DX2                !
 ! R10   R(3,15)                 1.1223         estimate D2E/DX2                !
 ! R11   R(4,5)                  1.5197         estimate D2E/DX2                !
 ! R12   R(4,8)                  1.473          estimate D2E/DX2                !
 ! R13   R(4,16)                 1.1174         estimate D2E/DX2                !
 ! R14   R(5,6)                  1.3489         estimate D2E/DX2                !
 ! R15   R(5,7)                  1.2073         estimate D2E/DX2                !
 ! R16   R(6,17)                 0.971          estimate D2E/DX2                !
 ! R17   R(8,18)                 1.0354         estimate D2E/DX2                !
 ! R18   R(8,19)                 1.0345         estimate D2E/DX2                !
 ! R19   R(9,20)                 1.1134         estimate D2E/DX2                !
 ! R20   R(9,21)                 1.1139         estimate D2E/DX2                !
 ! R21   R(9,22)                 1.1118         estimate D2E/DX2                !
 ! A1    A(2,1,10)             110.6004         estimate D2E/DX2                !
 ! A2    A(2,1,11)             111.805          estimate D2E/DX2                !
 ! A3    A(2,1,12)             112.0161         estimate D2E/DX2                !
 ! A4    A(10,1,11)            106.4743         estimate D2E/DX2                !
 ! A5    A(10,1,12)            107.095          estimate D2E/DX2                !
 ! A6    A(11,1,12)            108.5843         estimate D2E/DX2                !
 ! A7    A(1,2,3)              116.5893         estimate D2E/DX2                !
 ! A8    A(1,2,13)             108.1252         estimate D2E/DX2                !
 ! A9    A(1,2,14)             108.1552         estimate D2E/DX2                !
 ! A10   A(3,2,13)             108.4426         estimate D2E/DX2                !
 ! A11   A(3,2,14)             109.0073         estimate D2E/DX2                !
 ! A12   A(13,2,14)            106.0225         estimate D2E/DX2                !
 ! A13   A(2,3,4)              113.8405         estimate D2E/DX2                !
 ! A14   A(2,3,9)              111.8903         estimate D2E/DX2                !
 ! A15   A(2,3,15)             104.7408         estimate D2E/DX2                !
 ! A16   A(4,3,9)              112.5184         estimate D2E/DX2                !
 ! A17   A(4,3,15)             106.714          estimate D2E/DX2                !
 ! A18   A(9,3,15)             106.391          estimate D2E/DX2                !
 ! A19   A(3,4,5)              114.0658         estimate D2E/DX2                !
 ! A20   A(3,4,8)              111.834          estimate D2E/DX2                !
 ! A21   A(3,4,16)             108.6932         estimate D2E/DX2                !
 ! A22   A(5,4,8)              108.7662         estimate D2E/DX2                !
 ! A23   A(5,4,16)             105.1472         estimate D2E/DX2                !
 ! A24   A(8,4,16)             107.9628         estimate D2E/DX2                !
 ! A25   A(4,5,6)              110.817          estimate D2E/DX2                !
 ! A26   A(4,5,7)              128.2001         estimate D2E/DX2                !
 ! A27   A(6,5,7)              120.9829         estimate D2E/DX2                !
 ! A28   A(5,6,17)             108.2519         estimate D2E/DX2                !
 ! A29   A(4,8,18)             110.3335         estimate D2E/DX2                !
 ! A30   A(4,8,19)             111.1795         estimate D2E/DX2                !
 ! A31   A(18,8,19)            104.8296         estimate D2E/DX2                !
 ! A32   A(3,9,20)             111.46           estimate D2E/DX2                !
 ! A33   A(3,9,21)             111.1617         estimate D2E/DX2                !
 ! A34   A(3,9,22)             112.1824         estimate D2E/DX2                !
 ! A35   A(20,9,21)            107.1873         estimate D2E/DX2                !
 ! A36   A(20,9,22)            107.269          estimate D2E/DX2                !
 ! A37   A(21,9,22)            107.3198         estimate D2E/DX2                !
 ! D1    D(10,1,2,3)           174.368          estimate D2E/DX2                !
 ! D2    D(10,1,2,13)           51.9505         estimate D2E/DX2                !
 ! D3    D(10,1,2,14)          -62.4417         estimate D2E/DX2                !
 ! D4    D(11,1,2,3)           -67.163          estimate D2E/DX2                !
 ! D5    D(11,1,2,13)          170.4195         estimate D2E/DX2                !
 ! D6    D(11,1,2,14)           56.0273         estimate D2E/DX2                !
 ! D7    D(12,1,2,3)            54.9795         estimate D2E/DX2                !
 ! D8    D(12,1,2,13)          -67.4379         estimate D2E/DX2                !
 ! D9    D(12,1,2,14)          178.1699         estimate D2E/DX2                !
 ! D10   D(1,2,3,4)             61.9149         estimate D2E/DX2                !
 ! D11   D(1,2,3,9)            -67.0464         estimate D2E/DX2                !
 ! D12   D(1,2,3,15)           178.1074         estimate D2E/DX2                !
 ! D13   D(13,2,3,4)          -175.8333         estimate D2E/DX2                !
 ! D14   D(13,2,3,9)            55.2054         estimate D2E/DX2                !
 ! D15   D(13,2,3,15)          -59.6408         estimate D2E/DX2                !
 ! D16   D(14,2,3,4)           -60.8338         estimate D2E/DX2                !
 ! D17   D(14,2,3,9)           170.2049         estimate D2E/DX2                !
 ! D18   D(14,2,3,15)           55.3587         estimate D2E/DX2                !
 ! D19   D(2,3,4,5)            159.1044         estimate D2E/DX2                !
 ! D20   D(2,3,4,8)            -76.9436         estimate D2E/DX2                !
 ! D21   D(2,3,4,16)            42.1538         estimate D2E/DX2                !
 ! D22   D(9,3,4,5)            -72.2531         estimate D2E/DX2                !
 ! D23   D(9,3,4,8)             51.6989         estimate D2E/DX2                !
 ! D24   D(9,3,4,16)           170.7963         estimate D2E/DX2                !
 ! D25   D(15,3,4,5)            44.0711         estimate D2E/DX2                !
 ! D26   D(15,3,4,8)           168.023          estimate D2E/DX2                !
 ! D27   D(15,3,4,16)          -72.8795         estimate D2E/DX2                !
 ! D28   D(2,3,9,20)          -175.2937         estimate D2E/DX2                !
 ! D29   D(2,3,9,21)           -55.7795         estimate D2E/DX2                !
 ! D30   D(2,3,9,22)            64.3916         estimate D2E/DX2                !
 ! D31   D(4,3,9,20)            55.0535         estimate D2E/DX2                !
 ! D32   D(4,3,9,21)           174.5677         estimate D2E/DX2                !
 ! D33   D(4,3,9,22)           -65.2611         estimate D2E/DX2                !
 ! D34   D(15,3,9,20)          -61.4638         estimate D2E/DX2                !
 ! D35   D(15,3,9,21)           58.0504         estimate D2E/DX2                !
 ! D36   D(15,3,9,22)          178.2215         estimate D2E/DX2                !
 ! D37   D(3,4,5,6)            170.0497         estimate D2E/DX2                !
 ! D38   D(3,4,5,7)             -9.9594         estimate D2E/DX2                !
 ! D39   D(8,4,5,6)             44.4628         estimate D2E/DX2                !
 ! D40   D(8,4,5,7)           -135.5463         estimate D2E/DX2                !
 ! D41   D(16,4,5,6)           -70.9676         estimate D2E/DX2                !
 ! D42   D(16,4,5,7)           109.0232         estimate D2E/DX2                !
 ! D43   D(3,4,8,18)          -178.2875         estimate D2E/DX2                !
 ! D44   D(3,4,8,19)           -62.4187         estimate D2E/DX2                !
 ! D45   D(5,4,8,18)           -51.4107         estimate D2E/DX2                !
 ! D46   D(5,4,8,19)            64.458          estimate D2E/DX2                !
 ! D47   D(16,4,8,18)           62.1841         estimate D2E/DX2                !
 ! D48   D(16,4,8,19)          178.0528         estimate D2E/DX2                !
 ! D49   D(4,5,6,17)           178.682          estimate D2E/DX2                !
 ! D50   D(7,5,6,17)            -1.3097         estimate D2E/DX2                !
 --------------------------------------------------------------------------------
 Trust Radius=3.00D-01 FncErr=1.00D-07 GrdErr=1.00D-06
 Number of steps in this run=    118 maximum allowed number of steps=    132.
 GradGradGradGradGradGradGradGradGradGradGradGradGradGradGradGradGradGrad

                          Input orientation:                          
 ---------------------------------------------------------------------
 Center     Atomic      Atomic             Coordinates (Angstroms)
 Number     Number       Type             X           Y           Z
 ---------------------------------------------------------------------
      1          6           0       -2.099156   -0.373152   -0.833553
      2          6           0       -0.897222   -1.319261   -0.719231
      3          6           0        0.481705   -0.660995   -0.489720
      4          6           0        0.581174    0.135963    0.829445
      5          6           0        2.004466    0.356672    1.314332
      6          8           0        2.031274    1.233556    2.338970
      7          8           0        3.021366   -0.142481    0.896700
      8          7           0       -0.094442    1.441376    0.733137
      9          6           0        0.935873    0.159537   -1.709605
     10          1           0       -3.021366   -0.940795   -1.097785
     11          1           0       -2.311431    0.143344    0.128548
     12          1           0       -1.950872    0.395883   -1.623626
     13          1           0       -0.846023   -1.930656   -1.653145
     14          1           0       -1.099060   -2.039835    0.110405
     15          1           0        1.197606   -1.520892   -0.402094
     16          1           0        0.084032   -0.450367    1.640449
     17          1           0        2.951801    1.330626    2.632146
     18          1           0        0.010924    1.967243    1.618835
     19          1           0        0.349332    2.039835    0.015499
     20          1           0        1.965044    0.560774   -1.570342
     21          1           0        0.947958   -0.464608   -2.632146
     22          1           0        0.267391    1.026183   -1.905039
 ---------------------------------------------------------------------
                    Distance matrix (angstroms):
                    1          2          3          4          5
     1  C    0.000000
     2  C    1.533896   0.000000
     3  C    2.619526   1.545131   0.000000
     4  C    3.195142   2.588770   1.544420   0.000000
     5  C    4.688898   3.919684   2.570807   1.519733   0.000000
     6  O    5.450400   4.944245   3.740585   2.363507   1.348899
     7  O    5.409873   4.399020   2.939540   2.456948   1.207334
     8  N    3.125045   3.221016   2.499458   1.473036   2.433061
     9  C    3.203533   2.554980   1.538720   2.563814   3.213246
    10  H    1.114679   2.190554   3.566446   4.225153   5.723698
    11  H    1.112415   2.204071   2.971670   2.976319   4.480911
    12  H    1.112483   2.206769   2.884470   3.535021   4.927254
    13  H    2.160531   1.117417   2.174502   3.531439   4.707768
    14  H    2.160806   1.117256   2.181781   2.841532   4.101775
    15  H    3.517400   2.128270   1.122326   2.154494   2.668780
    16  H    3.300448   2.699245   2.177183   1.117435   2.108490
    17  H    6.358152   5.750531   4.451289   3.208866   1.892793
    18  H    3.993006   4.134294   3.402245   2.074104   2.580866
    19  H    3.540973   3.657492   2.750864   2.083504   2.694341
    20  H    4.234713   3.528667   2.204713   2.802595   2.892154
    21  H    3.539520   2.791839   2.201352   3.532397   4.167181
    22  H    2.950723   2.874643   2.212607   2.892811   3.718874
                    6          7          8          9         10
     6  O    0.000000
     7  O    2.225736   0.000000
     8  N    2.672182   3.499088   0.000000
     9  C    4.329478   3.351615   2.944766   0.000000
    10  H    6.486005   6.413259   4.194508   4.152685   0.000000
    11  H    4.993357   5.395413   2.639215   3.731495   1.784169
    12  H    5.679908   5.600449   3.177062   2.897680   1.791417
    13  H    5.850475   4.965479   4.198787   2.747225   2.453644
    14  H    5.047829   4.603925   3.676395   3.505799   2.522473
    15  H    3.974345   2.629255   3.425371   2.145211   4.315116
    16  H    2.667448   3.045634   2.105649   3.510054   4.169166
    17  H    0.970950   2.277423   3.591392   4.928105   7.399356
    18  H    2.266871   3.746355   1.035422   3.898954   5.003148
    19  H    2.979519   3.560728   1.034453   2.618308   4.635209
    20  H    3.967334   2.774289   3.212936   1.113363   5.228987
    21  H    5.363705   4.105550   4.005559   1.113905   4.282120
    22  H    4.600641   4.098768   2.695047   1.111817   3.916195
                   11         12         13         14         15
    11  H    0.000000
    12  H    1.806625   0.000000
    13  H    3.102149   2.575723   0.000000
    14  H    2.497287   3.108886   1.784953   0.000000
    15  H    3.919771   3.883179   2.430937   2.409695   0.000000
    16  H    2.894232   3.938421   3.728809   2.503428   2.560870
    17  H    5.948046   6.559081   6.589624   5.841974   4.518293
    18  H    3.307702   4.102605   5.160797   4.423132   4.202315
    19  H    3.269422   3.268065   4.469681   4.330191   3.684119
    20  H    4.620467   3.919748   3.757150   4.356238   2.507409
    21  H    4.314470   3.187597   2.515175   3.767388   2.480160
    22  H    3.400765   2.323179   3.169549   3.915312   3.100280
                   16         17         18         19         20
    16  H    0.000000
    17  H    3.518451   0.000000
    18  H    2.418812   3.175034   0.000000
    19  H    2.985289   3.758013   1.640267   0.000000
    20  H    3.856137   4.384891   3.995947   2.704263   0.000000
    21  H    4.359087   5.911939   4.986258   3.693320   1.792568
    22  H    3.845036   5.280605   3.656372   2.173171   1.791830
                   21         22
    21  H    0.000000
    22  H    1.792851   0.000000
 Stoichiometry    C6H13NO2
 Framework group  C1[X(C6H13NO2)]
 Deg. of freedom    60
 Full point group                 C1      NOp   1
 Largest Abelian subgroup         C1      NOp   1
 Largest concise Abelian subgroup C1      NOp   1
                         Standard orientation:                         
 ---------------------------------------------------------------------
 Center     Atomic      Atomic             Coordinates (Angstroms)
 Number     Number       Type             X           Y           Z
 ---------------------------------------------------------------------
      1          6           0       -2.830915   -0.850627   -0.107648
      2          6           0       -2.118975    0.300877   -0.828770
      3          6           0       -0.743983    0.724711   -0.265574
      4          6           0        0.323649   -0.389900   -0.320687
      5          6           0        1.754327    0.118573   -0.255865
      6          8           0        2.619204   -0.903243   -0.090313
      7          8           0        2.145987    1.257982   -0.333360
      8          7           0        0.127368   -1.389621    0.743205
      9          6           0       -0.866353    1.354892    1.132839
     10          1           0       -3.851135   -1.006121   -0.528932
     11          1           0       -2.288392   -1.813880   -0.231250
     12          1           0       -2.953244   -0.649596    0.979661
     13          1           0       -2.795502    1.190130   -0.816131
     14          1           0       -2.000742    0.018596   -1.903293
     15          1           0       -0.393858    1.541229   -0.951377
     16          1           0        0.244193   -0.913597   -1.304602
     17          1           0        3.519566   -0.540122   -0.074990
     18          1           0        0.870999   -2.108971    0.702597
     19          1           0        0.223524   -0.962018    1.680223
     20          1           0        0.115468    1.733811    1.496193
     21          1           0       -1.569842    2.218500    1.124570
     22          1           0       -1.240641    0.630310    1.888503
 ---------------------------------------------------------------------
 Rotational constants (GHZ):      2.7470628      1.0111056      0.8804634
 Standard basis: 6-311++G(d,p) (5D, 7F)
 There are   298 symmetry adapted cartesian basis functions of A   symmetry.
 There are   289 symmetry adapted basis functions of A   symmetry.
   289 basis functions,   441 primitive gaussians,   298 cartesian basis functions
    36 alpha electrons       36 beta electrons
       nuclear repulsion energy       490.6323832165 Hartrees.
 NAtoms=   22 NActive=   22 NUniq=   22 SFac= 1.00D+00 NAtFMM=   60 NAOKFM=F Big=F
 Integral buffers will be    131072 words long.
 Raffenetti 2 integral format.
 Two-electron integral symmetry is turned on.
 One-electron integrals computed using PRISM.
 NBasis=   289 RedAO= T EigKep=  5.47D-06  NBF=   289
 NBsUse=   289 1.00D-06 EigRej= -1.00D+00 NBFU=   289
 ExpMin= 3.60D-02 ExpMax= 8.59D+03 ExpMxC= 1.30D+03 IAcc=3 IRadAn=         5 AccDes= 0.00D+00
 Harris functional with IExCor=  402 and IRadAn=       5 diagonalized for initial guess.
 HarFok:  IExCor=  402 AccDes= 0.00D+00 IRadAn=         5 IDoV= 1 UseB2=F ITyADJ=14
 ICtDFT=  3500011 ScaDFX=  1.000000  1.000000  1.000000  1.000000
 FoFCou: FMM=F IPFlag=           0 FMFlag=      100000 FMFlg1=           0
         NFxFlg=           0 DoJE=T BraDBF=F KetDBF=T FulRan=T
         wScrn=  0.000000 ICntrl=     500 IOpCl=  0 I1Cent=   200000004 NGrid=           0
         NMat0=    1 NMatS0=      1 NMatT0=    0 NMatD0=    1 NMtDS0=    0 NMtDT0=    0
 Petite list used in FoFCou.
 Keep R1 ints in memory in canonical form, NReq=891693927.
 Requested convergence on RMS density matrix=1.00D-08 within 128 cycles.
 Requested convergence on MAX density matrix=1.00D-06.
 Requested convergence on             energy=1.00D-06.
 No special actions if energy rises.
 SCF Done:  E(RB3LYP) =  -441.814048919     A.U. after   13 cycles
            NFock= 13  Conv=0.68D-08     -V/T= 2.0048

 **********************************************************************

            Population analysis using the SCF density.

 **********************************************************************

 Orbital symmetries:
       Occupied  (A) (A) (A) (A) (A) (A) (A) (A) (A) (A) (A) (A)
                 (A) (A) (A) (A) (A) (A) (A) (A) (A) (A) (A) (A)
                 (A) (A) (A) (A) (A) (A) (A) (A) (A) (A) (A) (A)
       Virtual   (A) (A) (A) (A) (A) (A) (A) (A) (A) (A) (A) (A)
                 (A) (A) (A) (A) (A) (A) (A) (A) (A) (A) (A) (A)
                 (A) (A) (A) (A) (A) (A) (A) (A) (A) (A) (A) (A)
                 (A) (A) (A) (A) (A) (A) (A) (A) (A) (A) (A) (A)
                 (A) (A) (A) (A) (A) (A) (A) (A) (A) (A) (A) (A)
                 (A) (A) (A) (A) (A) (A) (A) (A) (A) (A) (A) (A)
                 (A) (A) (A) (A) (A) (A) (A) (A) (A) (A) (A) (A)
                 (A) (A) (A) (A) (A) (A) (A) (A) (A) (A) (A) (A)
                 (A) (A) (A) (A) (A) (A) (A) (A) (A) (A) (A) (A)
                 (A) (A) (A) (A) (A) (A) (A) (A) (A) (A) (A) (A)
                 (A) (A) (A) (A) (A) (A) (A) (A) (A) (A) (A) (A)
                 (A) (A) (A) (A) (A) (A) (A) (A) (A) (A) (A) (A)
                 (A) (A) (A) (A) (A) (A) (A) (A) (A) (A) (A) (A)
                 (A) (A) (A) (A) (A) (A) (A) (A) (A) (A) (A) (A)
                 (A) (A) (A) (A) (A) (A) (A) (A) (A) (A) (A) (A)
                 (A) (A) (A) (A) (A) (A) (A) (A) (A) (A) (A) (A)
                 (A) (A) (A) (A) (A) (A) (A) (A) (A) (A) (A) (A)
                 (A) (A) (A) (A) (A) (A) (A) (A) (A) (A) (A) (A)
                 (A) (A) (A) (A) (A) (A) (A) (A) (A) (A) (A) (A)
                 (A) (A) (A) (A) (A) (A) (A) (A) (A) (A) (A) (A)
                 (A) (A) (A) (A) (A) (A) (A) (A) (A) (A) (A) (A)
                 (A)
 The electronic state is 1-A.
 Alpha  occ. eigenvalues --  -19.18401 -19.12590 -14.30716 -10.31342 -10.22793
 Alpha  occ. eigenvalues --  -10.18656 -10.17215 -10.16757 -10.15456  -1.12848
 Alpha  occ. eigenvalues --   -1.03385  -0.90398  -0.80080  -0.73187  -0.71034
 Alpha  occ. eigenvalues --   -0.65055  -0.61518  -0.54717  -0.51980  -0.51353
 Alpha  occ. eigenvalues --   -0.49400  -0.46924  -0.45640  -0.44213  -0.42291
 Alpha  occ. eigenvalues --   -0.41050  -0.40160  -0.38073  -0.37615  -0.35680
 Alpha  occ. eigenvalues --   -0.34088  -0.33153  -0.32473  -0.32330  -0.31002
 Alpha  occ. eigenvalues --   -0.24732
 Alpha virt. eigenvalues --   -0.02420  -0.01289  -0.00100   0.00197   0.01479
 Alpha virt. eigenvalues --    0.01989   0.02937   0.03440   0.04314   0.04639
 Alpha virt. eigenvalues --    0.05628   0.06408   0.07188   0.07371   0.08384
 Alpha virt. eigenvalues --    0.08672   0.09540   0.09730   0.10227   0.11227
 Alpha virt. eigenvalues --    0.11427   0.11670   0.12014   0.12938   0.13383
 Alpha virt. eigenvalues --    0.13468   0.14178   0.14200   0.14504   0.15006
 Alpha virt. eigenvalues --    0.15359   0.16129   0.16383   0.16916   0.17574
 Alpha virt. eigenvalues --    0.17717   0.17883   0.18563   0.19275   0.20082
 Alpha virt. eigenvalues --    0.20646   0.20926   0.22298   0.22972   0.23388
 Alpha virt. eigenvalues --    0.23861   0.24571   0.24753   0.25802   0.26069
 Alpha virt. eigenvalues --    0.26237   0.27170   0.27459   0.28736   0.29523
 Alpha virt. eigenvalues --    0.30106   0.30831   0.31708   0.32152   0.32444
 Alpha virt. eigenvalues --    0.33917   0.34138   0.34882   0.35104   0.36893
 Alpha virt. eigenvalues --    0.37702   0.39173   0.39360   0.40159   0.42338
 Alpha virt. eigenvalues --    0.45283   0.46358   0.47010   0.48742   0.50842
 Alpha virt. eigenvalues --    0.52185   0.53064   0.54120   0.56670   0.58718
 Alpha virt. eigenvalues --    0.59154   0.60041   0.61439   0.63096   0.63629
 Alpha virt. eigenvalues --    0.65347   0.65933   0.67053   0.67304   0.68679
 Alpha virt. eigenvalues --    0.69155   0.70043   0.70832   0.71867   0.72726
 Alpha virt. eigenvalues --    0.74662   0.74917   0.75172   0.76361   0.77704
 Alpha virt. eigenvalues --    0.79387   0.83985   0.84420   0.87429   0.90320
 Alpha virt. eigenvalues --    0.92786   0.93796   0.96032   1.01554   1.02901
 Alpha virt. eigenvalues --    1.05847   1.07995   1.09313   1.11433   1.12768
 Alpha virt. eigenvalues --    1.14974   1.15479   1.17955   1.19292   1.22315
 Alpha virt. eigenvalues --    1.24623   1.26475   1.27731   1.30461   1.33743
 Alpha virt. eigenvalues --    1.34194   1.39861   1.42677   1.45798   1.47461
 Alpha virt. eigenvalues --    1.47484   1.48610   1.51761   1.53826   1.54772
 Alpha virt. eigenvalues --    1.56549   1.56700   1.57925   1.59004   1.59756
 Alpha virt. eigenvalues --    1.61400   1.62768   1.63277   1.66340   1.66952
 Alpha virt. eigenvalues --    1.67477   1.69065   1.70932   1.71466   1.73470
 Alpha virt. eigenvalues --    1.74824   1.75127   1.78081   1.81429   1.82326
 Alpha virt. eigenvalues --    1.84915   1.87439   1.88323   1.90554   1.92725
 Alpha virt. eigenvalues --    1.94305   1.96784   2.01726   2.01906   2.04341
 Alpha virt. eigenvalues --    2.07343   2.08300   2.12260   2.13891   2.15690
 Alpha virt. eigenvalues --    2.17378   2.22276   2.24904   2.26915   2.31505
 Alpha virt. eigenvalues --    2.32506   2.34365   2.35876   2.41602   2.44514
 Alpha virt. eigenvalues --    2.46873   2.48113   2.52044   2.52980   2.54178
 Alpha virt. eigenvalues --    2.55885   2.58249   2.59766   2.61187   2.62174
 Alpha virt. eigenvalues --    2.63415   2.65875   2.66594   2.68532   2.71404
 Alpha virt. eigenvalues --    2.71837   2.75193   2.77996   2.80359   2.82550
 Alpha virt. eigenvalues --    2.84674   2.87295   2.87959   2.90601   2.92965
 Alpha virt. eigenvalues --    2.93685   2.96250   2.98488   3.01489   3.04814
 Alpha virt. eigenvalues --    3.05394   3.09353   3.11269   3.16284   3.17349
 Alpha virt. eigenvalues --    3.21471   3.26976   3.34076   3.38338   3.45850
 Alpha virt. eigenvalues --    3.55794   3.62216   3.67748   3.73818   3.75752
 Alpha virt. eigenvalues --    3.77514   3.80724   3.80988   3.81941   3.89454
 Alpha virt. eigenvalues --    4.05329   4.06753   4.16611   4.18465   4.29966
 Alpha virt. eigenvalues --    4.36891   4.67436   4.81607   4.99057   5.06485
 Alpha virt. eigenvalues --    5.19666   5.39725   5.59185   5.85400  23.78950
 Alpha virt. eigenvalues --   23.80910  23.83231  23.89197  23.94506  23.95629
 Alpha virt. eigenvalues --   35.58637  49.85561  50.00621
          Condensed to atoms (all electrons):
               1          2          3          4          5          6
     1  C    5.458095  -0.019383   0.043964  -0.035712   0.032295   0.002562
     2  C   -0.019383   6.236708  -0.720323   0.222827  -0.035705   0.007361
     3  C    0.043964  -0.720323   7.379923  -1.440434   0.592712   0.015974
     4  C   -0.035712   0.222827  -1.440434   9.062638  -1.663339  -0.184742
     5  C    0.032295  -0.035705   0.592712  -1.663339   6.828531   0.248312
     6  O    0.002562   0.007361   0.015974  -0.184742   0.248312   8.110214
     7  O   -0.000527   0.043482   0.018714  -0.001656   0.320265  -0.150345
     8  N   -0.019183   0.023957  -0.200533  -0.060006  -0.137524  -0.067936
     9  C   -0.056701  -0.061737  -0.245841   0.163752  -0.119803  -0.026837
    10  H    0.377578  -0.045595   0.017717   0.003427  -0.001269   0.000054
    11  H    0.441304  -0.044777  -0.026918  -0.006310  -0.017527   0.000141
    12  H    0.396742  -0.042132   0.018239   0.002494   0.001233  -0.000494
    13  H   -0.059063   0.442163  -0.104612   0.033886  -0.007050   0.000399
    14  H   -0.062150   0.396330   0.028549  -0.039888   0.023174   0.000671
    15  H    0.010486  -0.065322   0.491006  -0.099674   0.019723  -0.002462
    16  H    0.010252   0.016344  -0.157934   0.438031  -0.069946  -0.005193
    17  H    0.000371   0.001525   0.010721  -0.091400   0.091924   0.237292
    18  H    0.000177  -0.008089   0.043469  -0.126168   0.032044   0.008400
    19  H    0.011388   0.003032  -0.000958  -0.080209   0.037751   0.002147
    20  H   -0.001777   0.030505  -0.101244   0.075767  -0.028648  -0.002728
    21  H    0.005328   0.001570  -0.060429   0.000887   0.006245  -0.000706
    22  H    0.021509  -0.040289   0.094912  -0.098516   0.031456   0.003713
               7          8          9         10         11         12
     1  C   -0.000527  -0.019183  -0.056701   0.377578   0.441304   0.396742
     2  C    0.043482   0.023957  -0.061737  -0.045595  -0.044777  -0.042132
     3  C    0.018714  -0.200533  -0.245841   0.017717  -0.026918   0.018239
     4  C   -0.001656  -0.060006   0.163752   0.003427  -0.006310   0.002494
     5  C    0.320265  -0.137524  -0.119803  -0.001269  -0.017527   0.001233
     6  O   -0.150345  -0.067936  -0.026837   0.000054   0.000141  -0.000494
     7  O    8.052789   0.051844  -0.038305   0.000263   0.000766  -0.000677
     8  N    0.051844   6.906406   0.142652   0.002046  -0.022767  -0.004453
     9  C   -0.038305   0.142652   5.901443   0.003132   0.008801  -0.019890
    10  H    0.000263   0.002046   0.003132   0.572503  -0.026121  -0.028041
    11  H    0.000766  -0.022767   0.008801  -0.026121   0.546026  -0.045935
    12  H   -0.000677  -0.004453  -0.019890  -0.028041  -0.045935   0.590148
    13  H    0.001086  -0.001551   0.002099  -0.006830   0.006522  -0.004707
    14  H   -0.001486  -0.005199  -0.006272  -0.005248  -0.010910   0.007661
    15  H   -0.018192  -0.005906  -0.063926  -0.001661  -0.001274   0.002656
    16  H    0.005888  -0.024927   0.010181  -0.000650   0.003691   0.001134
    17  H   -0.006949   0.001978  -0.004684  -0.000009  -0.000420   0.000065
    18  H    0.001251   0.405579   0.009556   0.000468   0.001058  -0.001666
    19  H   -0.001548   0.393669  -0.024770  -0.000117  -0.001491   0.002140
    20  H    0.004656  -0.008246   0.402819   0.000574  -0.000018  -0.000388
    21  H   -0.000193   0.007241   0.395500   0.000369   0.001692  -0.002989
    22  H   -0.001060  -0.014853   0.352972  -0.003827  -0.001671   0.001182
              13         14         15         16         17         18
     1  C   -0.059063  -0.062150   0.010486   0.010252   0.000371   0.000177
     2  C    0.442163   0.396330  -0.065322   0.016344   0.001525  -0.008089
     3  C   -0.104612   0.028549   0.491006  -0.157934   0.010721   0.043469
     4  C    0.033886  -0.039888  -0.099674   0.438031  -0.091400  -0.126168
     5  C   -0.007050   0.023174   0.019723  -0.069946   0.091924   0.032044
     6  O    0.000399   0.000671  -0.002462  -0.005193   0.237292   0.008400
     7  O    0.001086  -0.001486  -0.018192   0.005888  -0.006949   0.001251
     8  N   -0.001551  -0.005199  -0.005906  -0.024927   0.001978   0.405579
     9  C    0.002099  -0.006272  -0.063926   0.010181  -0.004684   0.009556
    10  H   -0.006830  -0.005248  -0.001661  -0.000650  -0.000009   0.000468
    11  H    0.006522  -0.010910  -0.001274   0.003691  -0.000420   0.001058
    12  H   -0.004707   0.007661   0.002656   0.001134   0.000065  -0.001666
    13  H    0.577461  -0.019788  -0.013461   0.002393  -0.000125   0.000297
    14  H   -0.019788   0.587447  -0.005207  -0.001816   0.000284  -0.000996
    15  H   -0.013461  -0.005207   0.534578  -0.007035   0.000395  -0.001907
    16  H    0.002393  -0.001816  -0.007035   0.561618   0.000481  -0.012489
    17  H   -0.000125   0.000284   0.000395   0.000481   0.460302   0.000051
    18  H    0.000297  -0.000996  -0.001907  -0.012489   0.000051   0.442367
    19  H   -0.001215   0.001417   0.005060   0.003200   0.001423  -0.053441
    20  H    0.000481  -0.002804  -0.011925   0.006029   0.000129  -0.000841
    21  H    0.000465  -0.001515  -0.006531  -0.000924   0.000144   0.000862
    22  H    0.003569   0.002133   0.012396  -0.004245  -0.000065  -0.001541
              19         20         21         22
     1  C    0.011388  -0.001777   0.005328   0.021509
     2  C    0.003032   0.030505   0.001570  -0.040289
     3  C   -0.000958  -0.101244  -0.060429   0.094912
     4  C   -0.080209   0.075767   0.000887  -0.098516
     5  C    0.037751  -0.028648   0.006245   0.031456
     6  O    0.002147  -0.002728  -0.000706   0.003713
     7  O   -0.001548   0.004656  -0.000193  -0.001060
     8  N    0.393669  -0.008246   0.007241  -0.014853
     9  C   -0.024770   0.402819   0.395500   0.352972
    10  H   -0.000117   0.000574   0.000369  -0.003827
    11  H   -0.001491  -0.000018   0.001692  -0.001671
    12  H    0.002140  -0.000388  -0.002989   0.001182
    13  H   -0.001215   0.000481   0.000465   0.003569
    14  H    0.001417  -0.002804  -0.001515   0.002133
    15  H    0.005060  -0.011925  -0.006531   0.012396
    16  H    0.003200   0.006029  -0.000924  -0.004245
    17  H    0.001423   0.000129   0.000144  -0.000065
    18  H   -0.053441  -0.000841   0.000862  -0.001541
    19  H    0.475155  -0.007394   0.000216   0.015074
    20  H   -0.007394   0.536525  -0.014903  -0.051576
    21  H    0.000216  -0.014903   0.541930  -0.030143
    22  H    0.015074  -0.051576  -0.030143   0.580223
 Mulliken charges:
               1
     1  C   -0.557554
     2  C   -0.342452
     3  C    0.303327
     4  C   -0.075657
     5  C   -0.184854
     6  O   -0.195796
     7  O   -0.280063
     8  N   -0.362290
     9  C   -0.724141
    10  H    0.141236
    11  H    0.196137
    12  H    0.127676
    13  H    0.147581
    14  H    0.115611
    15  H    0.228184
    16  H    0.225921
    17  H    0.296566
    18  H    0.261558
    19  H    0.219470
    20  H    0.175007
    21  H    0.155887
    22  H    0.128646
 Sum of Mulliken charges =   0.00000
 Mulliken charges with hydrogens summed into heavy atoms:
               1
     1  C   -0.092504
     2  C   -0.079260
     3  C    0.531510
     4  C    0.150264
     5  C   -0.184854
     6  O    0.100770
     7  O   -0.280063
     8  N    0.118738
     9  C   -0.264601
 Electronic spatial extent (au):  <R**2>=           1429.6703
 Charge=              0.0000 electrons
 Dipole moment (field-independent basis, Debye):
    X=              0.7711    Y=             -1.0164    Z=              0.2902  Tot=              1.3084
 Quadrupole moment (field-independent basis, Debye-Ang):
   XX=            -54.1652   YY=            -62.3410   ZZ=            -55.0389
   XY=             -6.8618   XZ=              1.7495   YZ=              1.0885
 Traceless Quadrupole moment (field-independent basis, Debye-Ang):
   XX=              3.0165   YY=             -5.1593   ZZ=              2.1428
   XY=             -6.8618   XZ=              1.7495   YZ=              1.0885
 Octapole moment (field-independent basis, Debye-Ang**2):
  XXX=             54.5728  YYY=             -4.6014  ZZZ=              2.3214  XYY=              0.5006
  XXY=             -9.3701  XXZ=              1.2503  XZZ=              8.7856  YZZ=             -3.2712
  YYZ=              0.5952  XYZ=             -0.4758
 Hexadecapole moment (field-independent basis, Debye-Ang**3):
 XXXX=          -1086.8177 YYYY=           -420.7837 ZZZZ=           -230.4072 XXXY=            -47.1998
 XXXZ=              3.2361 YYYX=            -27.5948 YYYZ=             -1.8318 ZZZX=             -3.1335
 ZZZY=             -7.7437 XXYY=           -302.0766 XXZZ=           -248.0051 YYZZ=           -110.4482
 XXYZ=              4.0497 YYXZ=              7.8006 ZZXY=             -1.5933
 N-N= 4.906323832165D+02 E-N=-2.012642462477D+03  KE= 4.397030031095D+02

 **********************************************************************

            Electrostatic Properties Using The SCF Density

 **********************************************************************

       Atomic Center    1 is at  -2.830915 -0.850627 -0.107648
       Atomic Center    2 is at  -2.118975  0.300877 -0.828770
       Atomic Center    3 is at  -0.743983  0.724711 -0.265574
       Atomic Center    4 is at   0.323649 -0.389900 -0.320687
       Atomic Center    5 is at   1.754327  0.118573 -0.255865
       Atomic Center    6 is at   2.619204 -0.903243 -0.090313
       Atomic Center    7 is at   2.145987  1.257982 -0.333360
       Atomic Center    8 is at   0.127368 -1.389621  0.743205
       Atomic Center    9 is at  -0.866353  1.354892  1.132839
       Atomic Center   10 is at  -3.851135 -1.006121 -0.528932
       Atomic Center   11 is at  -2.288392 -1.813880 -0.231250
       Atomic Center   12 is at  -2.953244 -0.649596  0.979661
       Atomic Center   13 is at  -2.795502  1.190130 -0.816131
       Atomic Center   14 is at  -2.000742  0.018596 -1.903293
       Atomic Center   15 is at  -0.393858  1.541229 -0.951377
       Atomic Center   16 is at   0.244193 -0.913597 -1.304602
       Atomic Center   17 is at   3.519566 -0.540122 -0.074990
       Atomic Center   18 is at   0.870999 -2.108971  0.702597
       Atomic Center   19 is at   0.223524 -0.962018  1.680223
       Atomic Center   20 is at   0.115468  1.733811  1.496193
       Atomic Center   21 is at  -1.569842  2.218500  1.124570
       Atomic Center   22 is at  -1.240641  0.630310  1.888503
 -----------------------------------------------------------------

              Electrostatic Properties (Atomic Units)

 -----------------------------------------------------------------
    Center     Electric         -------- Electric Field --------
               Potential          X             Y             Z
 -----------------------------------------------------------------
    1 Atom    -14.790359      0.000380     -0.001163     -0.000477
    2 Atom    -14.772601     -0.000627     -0.001280      0.000148
    3 Atom    -14.757549     -0.001645      0.003339     -0.001412
    4 Atom    -14.716739     -0.004095      0.003310     -0.003008
    5 Atom    -14.640067     -0.015817     -0.000019     -0.002661
    6 Atom    -22.312087     -0.008264     -0.043550      0.004158
    7 Atom    -22.374135      0.015158      0.049307     -0.003421
    8 Atom    -18.406068     -0.030650     -0.016567     -0.002230
    9 Atom    -14.777494      0.000682      0.000220     -0.000288
   10 Atom     -1.136065     -0.004853      0.001317     -0.001988
   11 Atom     -1.140689      0.003095     -0.002306      0.002896
   12 Atom     -1.135505      0.000148     -0.000833      0.004624
   13 Atom     -1.130583      0.000004      0.004839     -0.000576
   14 Atom     -1.130963      0.001049      0.000312     -0.004834
   15 Atom     -1.127405      0.003755     -0.000082     -0.000134
   16 Atom     -1.093562     -0.001988     -0.003876     -0.004065
   17 Atom     -0.947267      0.020470      0.008890      0.000144
   18 Atom     -1.055664      0.000810     -0.002955     -0.002121
   19 Atom     -1.053303     -0.000903      0.003954      0.002874
   20 Atom     -1.122944      0.004147      0.002704      0.000667
   21 Atom     -1.120211     -0.002653      0.002649     -0.001026
   22 Atom     -1.122450     -0.003614     -0.002737      0.003677
 -----------------------------------------------------------------
 -----------------------------------------------------
    Center         ---- Electric Field Gradient ----
                     XX            YY            ZZ
 -----------------------------------------------------
    1 Atom     -500.268017   -500.268609   -500.271811
    2 Atom     -500.337265   -500.294291   -500.309078
    3 Atom     -500.282085   -500.275907   -500.248068
    4 Atom     -500.363651   -500.353899   -500.395536
    5 Atom     -501.232389   -501.357955   -501.935467
    6 Atom    -1238.386581  -1236.613985  -1235.768048
    7 Atom    -1236.656530  -1238.397895  -1238.890055
    8 Atom     -812.098590   -813.267823   -813.576195
    9 Atom     -500.254761   -500.277863   -500.306197
   10 Atom       -2.006967     -1.674170     -1.726210
   11 Atom       -1.752495     -1.964393     -1.664343
   12 Atom       -1.669496     -1.682167     -2.059108
   13 Atom       -1.825719     -1.933953     -1.678119
   14 Atom       -1.691897     -1.706976     -2.048211
   15 Atom       -1.715635     -1.877375     -1.820381
   16 Atom       -1.678056     -1.759887     -1.973827
   17 Atom       -2.069141     -1.594235     -1.474312
   18 Atom       -1.834571     -1.844572     -1.624468
   19 Atom       -1.577680     -1.712949     -2.037926
   20 Atom       -1.974325     -1.706000     -1.702555
   21 Atom       -1.816946     -1.898697     -1.660262
   22 Atom       -1.716291     -1.848068     -1.860034
 -----------------------------------------------------
 -----------------------------------------------------
    Center         ---- Electric Field Gradient ----
                     XY            XZ            YZ
 -----------------------------------------------------
    1 Atom       -0.045246      0.012042      0.014761
    2 Atom       -0.017164     -0.024822      0.007995
    3 Atom        0.068596     -0.004871     -0.033666
    4 Atom       -0.093041      0.036264      0.143668
    5 Atom        0.243727      0.039776     -0.032909
    6 Atom        0.428705     -0.206166      0.096467
    7 Atom       -0.705589      0.242500     -0.103219
    8 Atom        0.558212      0.130833      0.179625
    9 Atom        0.009765      0.008564     -0.024011
   10 Atom       -0.050828     -0.142134     -0.017560
   11 Atom        0.167789      0.030017     -0.038791
   12 Atom        0.003040      0.043928     -0.073679
   13 Atom        0.186740      0.002099     -0.005241
   14 Atom        0.008841      0.042876     -0.096666
   15 Atom       -0.079542      0.072743      0.165543
   16 Atom       -0.014355     -0.024494     -0.156956
   17 Atom       -0.209150     -0.013193      0.000138
   18 Atom        0.271621      0.023486     -0.008665
   19 Atom       -0.001584     -0.043488     -0.190249
   20 Atom       -0.117964     -0.116225     -0.047976
   21 Atom        0.200638     -0.005064      0.002839
   22 Atom       -0.087990      0.094099      0.181142
 -----------------------------------------------------
 -----------------------------------------------------
    Center         ---- Electric Field Gradient ----
                   ----       Eigenvalues       ----
 -----------------------------------------------------
    1 Atom     -500.320889   -500.264559   -500.222989
    2 Atom     -500.353823   -500.308720   -500.278091
    3 Atom     -500.351634   -500.259320   -500.195107
    4 Atom     -500.560804   -500.339982   -500.212301
    5 Atom     -501.942031   -501.540435   -501.043345
    6 Atom    -1238.502929  -1236.518714  -1235.746971
    7 Atom    -1238.918582  -1238.646931  -1236.378967
    8 Atom     -813.672804   -813.415599   -811.854204
    9 Atom     -500.322156   -500.265479   -500.251185
   10 Atom       -2.073571     -1.670253     -1.663523
   11 Atom       -2.062780     -1.666772     -1.651679
   12 Atom       -2.077684     -1.671950     -1.661137
   13 Atom       -2.074334     -1.685695     -1.677762
   14 Atom       -2.078633     -1.687838     -1.680613
   15 Atom       -2.051407     -1.685161     -1.676824
   16 Atom       -2.058911     -1.677761     -1.675098
   17 Atom       -2.148342     -1.515808     -1.473538
   18 Atom       -2.112289     -1.625400     -1.565921
   19 Atom       -2.128562     -1.630277     -1.569716
   20 Atom       -2.062675     -1.664026     -1.656178
   21 Atom       -2.062653     -1.660775     -1.652477
   22 Atom       -2.080811     -1.674096     -1.669486
 -----------------------------------------------------
 -----------------------------------------------------
    Center         ---- Electric Field Gradient ----
                       ( tensor representation )
                   3XX-RR        3YY-RR        3ZZ-RR
 -----------------------------------------------------
    1 Atom        0.001462      0.000870     -0.002332
    2 Atom       -0.023720      0.019254      0.004467
    3 Atom       -0.013399     -0.007220      0.020619
    4 Atom        0.007378      0.017130     -0.024507
    5 Atom        0.276214      0.150649     -0.426863
    6 Atom       -1.463709      0.308886      1.154823
    7 Atom        1.324963     -0.416402     -0.908562
    8 Atom        0.882280     -0.286954     -0.595326
    9 Atom        0.024846      0.001744     -0.026590
   10 Atom       -0.204518      0.128279      0.076239
   11 Atom        0.041249     -0.170649      0.129400
   12 Atom        0.134095      0.121423     -0.255518
   13 Atom       -0.013122     -0.121356      0.134478
   14 Atom        0.123798      0.108718     -0.232516
   15 Atom        0.088829     -0.072911     -0.015917
   16 Atom        0.125867      0.044037     -0.169904
   17 Atom       -0.356579      0.118328      0.238251
   18 Atom       -0.066701     -0.076701      0.143402
   19 Atom        0.198505      0.063236     -0.261741
   20 Atom       -0.180032      0.088293      0.091738
   21 Atom       -0.024978     -0.106729      0.131706
   22 Atom        0.091840     -0.039937     -0.051903
 -----------------------------------------------------
 -----------------------------------------------------
    Center         ---- Electric Field Gradient ----
                       ( tensor representation )
                   ----       Eigenvalues       ----
 -----------------------------------------------------
    1 Atom       -0.051410      0.004920      0.046490
    2 Atom       -0.040279      0.004825      0.035454
    3 Atom       -0.082947      0.009367      0.073580
    4 Atom       -0.189775      0.031047      0.158728
    5 Atom       -0.433427     -0.031831      0.465258
    6 Atom       -1.580058      0.404157      1.175901
    7 Atom       -0.937089     -0.665438      1.602526
    8 Atom       -0.691935     -0.434730      1.126665
    9 Atom       -0.042549      0.014127      0.028422
   10 Atom       -0.271122      0.132196      0.138926
   11 Atom       -0.269036      0.126972      0.142065
   12 Atom       -0.274093      0.131640      0.142453
   13 Atom       -0.261737      0.126902      0.134835
   14 Atom       -0.262938      0.127857      0.135081
   15 Atom       -0.246943      0.119303      0.127640
   16 Atom       -0.254988      0.126162      0.128826
   17 Atom       -0.435779      0.196755      0.239025
   18 Atom       -0.344419      0.142470      0.201949
   19 Atom       -0.352378      0.145908      0.206469
   20 Atom       -0.268382      0.130267      0.138115
   21 Atom       -0.270685      0.131193      0.139492
   22 Atom       -0.272680      0.134035      0.138645
 -----------------------------------------------------
 Calling FoFJK, ICntrl=      2127 FMM=F ISym2X=0 I1Cent= 0 IOpClX= 0 NMat=1 NMatS=1 NMatT=0.
 ***** Axes restored to original set *****
 -------------------------------------------------------------------
 Center     Atomic                   Forces (Hartrees/Bohr)
 Number     Number              X              Y              Z
 -------------------------------------------------------------------
      1        6          -0.014333652    0.005147542    0.001145278
      2        6          -0.007505542   -0.009129834    0.001399438
      3        6           0.013205213   -0.016504868   -0.004258428
      4        6          -0.008287881    0.003609893    0.004073292
      5        6           0.012728337   -0.010361861   -0.003832373
      6        8           0.001715549    0.006797987    0.011126508
      7        8          -0.001608473   -0.002348361   -0.002673078
      8        7          -0.000313279    0.018722457    0.004862880
      9        6           0.005710242    0.008903069   -0.008667473
     10        1           0.010744065    0.004570878    0.001363209
     11        1           0.004614755   -0.003522557   -0.013089091
     12        1          -0.002084118   -0.007417426    0.009861676
     13        1           0.002386125    0.006317910    0.011189581
     14        1           0.003526241    0.006858440   -0.009107103
     15        1          -0.007659554    0.013745722    0.001181933
     16        1           0.003299008    0.006805634   -0.008859775
     17        1          -0.001949088   -0.001583097   -0.002095636
     18        1          -0.002898562   -0.010434378   -0.013361134
     19        1          -0.005772263   -0.011302391    0.009047799
     20        1          -0.010678102   -0.005535570   -0.001534628
     21        1          -0.000759088    0.006428401    0.011337957
     22        1           0.005920067   -0.009767592    0.000889166
 -------------------------------------------------------------------
 Cartesian Forces:  Max     0.018722457 RMS     0.007946393

 GradGradGradGradGradGradGradGradGradGradGradGradGradGradGradGradGradGrad
 Berny optimization.
 FormGI is forming the generalized inverse of G from B-inverse, IUseBI=4.
 Internal  Forces:  Max     0.017022400 RMS     0.005355988
 Search for a local minimum.
 Step number   1 out of a maximum of  118
 All quantities printed in internal units (Hartrees-Bohrs-Radians)
 Mixed Optimization -- RFO/linear search
 Second derivative matrix not updated -- first step.
 ITU=  0
     Eigenvalues ---    0.00230   0.00230   0.00254   0.00318   0.00505
     Eigenvalues ---    0.00726   0.00913   0.02368   0.02897   0.03100
     Eigenvalues ---    0.04051   0.04227   0.04682   0.04746   0.04938
     Eigenvalues ---    0.04985   0.05275   0.05282   0.05392   0.05527
     Eigenvalues ---    0.06829   0.08956   0.12652   0.16000   0.16000
     Eigenvalues ---    0.16000   0.16000   0.16000   0.16000   0.16000
     Eigenvalues ---    0.16000   0.16000   0.17554   0.17868   0.18168
     Eigenvalues ---    0.18534   0.21976   0.25000   0.25000   0.28069
     Eigenvalues ---    0.28131   0.28633   0.29067   0.30392   0.31329
     Eigenvalues ---    0.31825   0.31827   0.31844   0.32110   0.32190
     Eigenvalues ---    0.32246   0.32339   0.32346   0.32408   0.35379
     Eigenvalues ---    0.41966   0.42110   0.53183   0.55256   1.01223
 RFO step:  Lambda=-1.22831879D-02 EMin= 2.30000000D-03
 Linear search not attempted -- first point.
 Iteration  1 RMS(Cart)=  0.09259090 RMS(Int)=  0.00320576
 Iteration  2 RMS(Cart)=  0.00548006 RMS(Int)=  0.00042951
 Iteration  3 RMS(Cart)=  0.00000972 RMS(Int)=  0.00042946
 Iteration  4 RMS(Cart)=  0.00000001 RMS(Int)=  0.00042946
 Variable       Old X    -DE/DX   Delta X   Delta X   Delta X     New X
                                 (Linear)    (Quad)   (Total)
    R1        2.89864   0.00010   0.00000   0.00034   0.00034   2.89898
    R2        2.10644  -0.01154   0.00000  -0.03461  -0.03461   2.07183
    R3        2.10216  -0.01384   0.00000  -0.04123  -0.04123   2.06093
    R4        2.10229  -0.01241   0.00000  -0.03698  -0.03698   2.06531
    R5        2.91987   0.00075   0.00000   0.00255   0.00255   2.92243
    R6        2.11161  -0.01269   0.00000  -0.03840  -0.03840   2.07321
    R7        2.11131  -0.01183   0.00000  -0.03576  -0.03576   2.07555
    R8        2.91853  -0.00169   0.00000  -0.00575  -0.00575   2.91278
    R9        2.90776  -0.00152   0.00000  -0.00508  -0.00508   2.90268
   R10        2.12089  -0.01533   0.00000  -0.04707  -0.04707   2.07382
   R11        2.87188   0.00990   0.00000   0.03132   0.03132   2.90320
   R12        2.78363   0.00141   0.00000   0.00386   0.00386   2.78750
   R13        2.11165  -0.01147   0.00000  -0.03469  -0.03469   2.07695
   R14        2.54905   0.01026   0.00000   0.01816   0.01816   2.56721
   R15        2.28153   0.00054   0.00000   0.00052   0.00052   2.28205
   R16        1.83483  -0.00264   0.00000  -0.00486  -0.00486   1.82997
   R17        1.95666  -0.01702   0.00000  -0.03941  -0.03941   1.91726
   R18        1.95483  -0.01530   0.00000  -0.03530  -0.03530   1.91953
   R19        2.10395  -0.01205   0.00000  -0.03601  -0.03601   2.06794
   R20        2.10498  -0.01301   0.00000  -0.03892  -0.03892   2.06606
   R21        2.10103  -0.01132   0.00000  -0.03366  -0.03366   2.06737
    A1        1.93034  -0.00234   0.00000  -0.00926  -0.00926   1.92108
    A2        1.95136   0.00067   0.00000   0.00453   0.00453   1.95589
    A3        1.95505   0.00122   0.00000   0.00205   0.00204   1.95709
    A4        1.85833   0.00222   0.00000   0.02256   0.02256   1.88088
    A5        1.86916   0.00039   0.00000   0.00091   0.00090   1.87006
    A6        1.89515  -0.00213   0.00000  -0.02012  -0.02013   1.87502
    A7        2.03487   0.00647   0.00000   0.03114   0.03111   2.06598
    A8        1.88714  -0.00024   0.00000   0.00613   0.00643   1.89357
    A9        1.88766  -0.00065   0.00000   0.00977   0.00978   1.89744
   A10        1.89268  -0.00390   0.00000  -0.02831  -0.02852   1.86416
   A11        1.90254  -0.00275   0.00000  -0.01340  -0.01388   1.88866
   A12        1.85044   0.00064   0.00000  -0.00859  -0.00898   1.84147
   A13        1.98689  -0.00164   0.00000  -0.00435  -0.00465   1.98224
   A14        1.95285   0.00079   0.00000   0.01544   0.01532   1.96817
   A15        1.82807   0.00126   0.00000   0.00911   0.00891   1.83698
   A16        1.96382   0.00184   0.00000   0.01363   0.01357   1.97739
   A17        1.86251  -0.00202   0.00000  -0.03602  -0.03597   1.82654
   A18        1.85687  -0.00038   0.00000  -0.00130  -0.00131   1.85557
   A19        1.99082  -0.01226   0.00000  -0.05230  -0.05430   1.93653
   A20        1.95187   0.00123   0.00000   0.01964   0.02011   1.97198
   A21        1.89706   0.00194   0.00000  -0.02271  -0.02366   1.87339
   A22        1.89833   0.01281   0.00000   0.08830   0.08886   1.98719
   A23        1.83517   0.00071   0.00000  -0.00908  -0.01027   1.82490
   A24        1.88431  -0.00436   0.00000  -0.02642  -0.02617   1.85813
   A25        1.93412   0.00486   0.00000   0.01851   0.01794   1.95206
   A26        2.23751  -0.00683   0.00000  -0.02603  -0.02659   2.21093
   A27        2.11155   0.00197   0.00000   0.00751   0.00691   2.11846
   A28        1.88935  -0.00353   0.00000  -0.02047  -0.02047   1.86888
   A29        1.92568  -0.00095   0.00000  -0.00317  -0.00316   1.92252
   A30        1.94045  -0.00371   0.00000  -0.01920  -0.01920   1.92125
   A31        1.82962   0.00284   0.00000   0.02120   0.02121   1.85083
   A32        1.94534  -0.00021   0.00000   0.00154   0.00147   1.94682
   A33        1.94014  -0.00207   0.00000  -0.01687  -0.01690   1.92324
   A34        1.95795   0.00076   0.00000   0.00653   0.00648   1.96443
   A35        1.87077   0.00067   0.00000  -0.00010  -0.00015   1.87062
   A36        1.87220   0.00092   0.00000   0.01426   0.01418   1.88637
   A37        1.87308   0.00003   0.00000  -0.00487  -0.00488   1.86821
    D1        3.04330  -0.00085   0.00000  -0.00310  -0.00314   3.04015
    D2        0.90671  -0.00007   0.00000   0.00745   0.00736   0.91407
    D3       -1.08981  -0.00037   0.00000   0.00941   0.00955  -1.08027
    D4       -1.17222   0.00082   0.00000   0.02204   0.02200  -1.15022
    D5        2.97438   0.00161   0.00000   0.03259   0.03250   3.00688
    D6        0.97786   0.00130   0.00000   0.03456   0.03469   1.01255
    D7        0.95957  -0.00057   0.00000   0.00066   0.00062   0.96019
    D8       -1.17701   0.00021   0.00000   0.01122   0.01112  -1.16589
    D9        3.10965  -0.00009   0.00000   0.01318   0.01331   3.12296
   D10        1.08062   0.00200   0.00000   0.05595   0.05602   1.13664
   D11       -1.17018   0.00015   0.00000   0.02689   0.02700  -1.14318
   D12        3.10856  -0.00049   0.00000   0.01593   0.01590   3.12446
   D13       -3.06887   0.00315   0.00000   0.06347   0.06324  -3.00563
   D14        0.96352   0.00130   0.00000   0.03441   0.03423   0.99774
   D15       -1.04093   0.00066   0.00000   0.02345   0.02313  -1.01780
   D16       -1.06175   0.00037   0.00000   0.03106   0.03128  -1.03047
   D17        2.97064  -0.00148   0.00000   0.00200   0.00226   2.97290
   D18        0.96619  -0.00212   0.00000  -0.00896  -0.00884   0.95735
   D19        2.77690  -0.00576   0.00000  -0.09881  -0.09795   2.67895
   D20       -1.34292   0.00288   0.00000  -0.00501  -0.00521  -1.34813
   D21        0.73572  -0.00051   0.00000  -0.04042  -0.04078   0.69495
   D22       -1.26105  -0.00444   0.00000  -0.06873  -0.06796  -1.32901
   D23        0.90232   0.00420   0.00000   0.02508   0.02478   0.92710
   D24        2.98096   0.00080   0.00000  -0.01034  -0.01078   2.97018
   D25        0.76918  -0.00515   0.00000  -0.08495  -0.08430   0.68488
   D26        2.93255   0.00350   0.00000   0.00885   0.00843   2.94099
   D27       -1.27199   0.00010   0.00000  -0.02657  -0.02713  -1.29912
   D28       -3.05945   0.00014   0.00000   0.00819   0.00831  -3.05115
   D29       -0.97354  -0.00055   0.00000  -0.00223  -0.00212  -0.97565
   D30        1.12385  -0.00142   0.00000  -0.01573  -0.01565   1.10820
   D31        0.96087   0.00013   0.00000  -0.01102  -0.01109   0.94978
   D32        3.04678  -0.00056   0.00000  -0.02144  -0.02151   3.02527
   D33       -1.13902  -0.00143   0.00000  -0.03495  -0.03504  -1.17406
   D34       -1.07275   0.00182   0.00000   0.02598   0.02596  -1.04678
   D35        1.01317   0.00113   0.00000   0.01556   0.01554   1.02871
   D36        3.11055   0.00026   0.00000   0.00205   0.00201   3.11256
   D37        2.96793   0.00364   0.00000   0.11373   0.11288   3.08081
   D38       -0.17382   0.00229   0.00000   0.05038   0.04990  -0.12393
   D39        0.77602   0.00090   0.00000   0.05640   0.05680   0.83283
   D40       -2.36573  -0.00045   0.00000  -0.00695  -0.00618  -2.37191
   D41       -1.23862  -0.00033   0.00000   0.05070   0.05059  -1.18803
   D42        1.90281  -0.00169   0.00000  -0.01265  -0.01239   1.89042
   D43       -3.11170   0.00134   0.00000  -0.03192  -0.03300   3.13849
   D44       -1.08941   0.00203   0.00000  -0.01932  -0.02040  -1.10981
   D45       -0.89729  -0.00400   0.00000  -0.01886  -0.01756  -0.91485
   D46        1.12500  -0.00331   0.00000  -0.00626  -0.00497   1.12004
   D47        1.08532   0.00103   0.00000   0.00133   0.00111   1.08643
   D48        3.10761   0.00171   0.00000   0.01392   0.01371   3.12131
   D49        3.11859  -0.00070   0.00000  -0.03107  -0.03162   3.08697
   D50       -0.02286   0.00055   0.00000   0.02700   0.02755   0.00469
         Item               Value     Threshold  Converged?
 Maximum Force            0.017022     0.000450     NO 
 RMS     Force            0.005356     0.000300     NO 
 Maximum Displacement     0.428481     0.001800     NO 
 RMS     Displacement     0.093024     0.001200     NO 
 Predicted change in Energy=-6.739817D-03
 GradGradGradGradGradGradGradGradGradGradGradGradGradGradGradGradGradGrad

                          Input orientation:                          
 ---------------------------------------------------------------------
 Center     Atomic      Atomic             Coordinates (Angstroms)
 Number     Number       Type             X           Y           Z
 ---------------------------------------------------------------------
      1          6           0       -2.130405   -0.422100   -0.871465
      2          6           0       -0.883375   -1.294650   -0.679205
      3          6           0        0.480743   -0.593501   -0.481267
      4          6           0        0.569767    0.225121    0.821723
      5          6           0        2.025013    0.338703    1.300889
      6          8           0        2.133561    1.120441    2.406622
      7          8           0        2.984238   -0.227687    0.834611
      8          7           0       -0.133606    1.519018    0.738288
      9          6           0        0.932119    0.189990   -1.722958
     10          1           0       -2.998164   -1.051481   -1.101446
     11          1           0       -2.366818    0.157139    0.021838
     12          1           0       -2.015852    0.283375   -1.698293
     13          1           0       -0.779324   -1.950244   -1.552698
     14          1           0       -1.051150   -1.966122    0.173622
     15          1           0        1.206412   -1.406011   -0.348771
     16          1           0        0.064565   -0.353937    1.607491
     17          1           0        3.063437    1.103884    2.676465
     18          1           0       -0.050351    2.019414    1.616935
     19          1           0        0.303745    2.109089    0.036625
     20          1           0        1.937952    0.601539   -1.594751
     21          1           0        0.961551   -0.468939   -2.594895
     22          1           0        0.256315    1.014908   -1.967182
 ---------------------------------------------------------------------
                    Distance matrix (angstroms):
                    1          2          3          4          5
     1  C    0.000000
     2  C    1.534076   0.000000
     3  C    2.645699   1.546482   0.000000
     4  C    3.252185   2.583430   1.541379   0.000000
     5  C    4.750309   3.879090   2.535716   1.536308   0.000000
     6  O    5.595238   4.945391   3.742900   2.399782   1.358507
     7  O    5.395188   4.288179   2.851813   2.456597   1.207611
     8  N    3.216590   3.238544   2.515447   1.475081   2.523747
     9  C    3.237089   2.567021   1.536032   2.570591   3.218725
    10  H    1.096366   2.170196   3.563308   4.249520   5.739001
    11  H    1.090596   2.190835   2.987504   3.044334   4.577895
    12  H    1.092915   2.193447   2.912568   3.610998   5.032569
    13  H    2.150517   1.097097   2.139273   3.491438   4.609398
    14  H    2.154298   1.098333   2.158626   2.801599   4.005712
    15  H    3.517902   2.118679   1.097417   2.106173   2.536831
    16  H    3.311760   2.648114   2.143246   1.099076   2.101693
    17  H    6.472435   5.708836   4.418449   3.229656   1.885745
    18  H    4.059525   4.116941   3.392909   2.058250   2.689202
    19  H    3.627207   3.675201   2.757450   2.058271   2.774057
    20  H    4.257054   3.520461   2.188932   2.802315   2.908847
    21  H    3.540141   2.784855   2.171201   3.508346   4.118297
    22  H    2.993663   2.879555   2.201202   2.915477   3.777014
                    6          7          8          9         10
     6  O    0.000000
     7  O    2.238820   0.000000
     8  N    2.842929   3.575081   0.000000
     9  C    4.400299   3.305572   2.993295   0.000000
    10  H    6.584708   6.341615   4.265886   4.168291   0.000000
    11  H    5.183489   5.426094   2.712057   3.732075   1.766671
    12  H    5.896494   5.628294   3.317619   2.949553   1.761535
    13  H    5.795707   4.778164   4.207297   2.745657   2.436114
    14  H    4.965435   4.443356   3.647868   3.489870   2.500646
    15  H    3.851590   2.439160   3.396048   2.123876   4.286102
    16  H    2.663296   3.022875   2.074306   3.484307   4.147917
    17  H    0.968379   2.274154   3.761641   4.973192   7.460644
    18  H    2.490227   3.856193   1.014568   3.932801   5.050702
    19  H    3.153178   3.644495   1.015771   2.678418   4.710309
    20  H    4.039616   2.772026   3.252105   1.094308   5.228869
    21  H    5.377258   3.988856   4.032549   1.093311   4.271895
    22  H    4.760813   4.103126   2.779520   1.094004   3.951088
                   11         12         13         14         15
    11  H    0.000000
    12  H    1.760104   0.000000
    13  H    3.072518   2.557197   0.000000
    14  H    2.502451   3.081389   1.747662   0.000000
    15  H    3.917750   3.880493   2.385117   2.383948   0.000000
    16  H    2.947392   3.957589   3.639662   2.428979   2.497526
    17  H    6.118091   6.753586   6.479223   5.711303   4.347431
    18  H    3.373191   4.227028   5.131877   4.355370   4.144513
    19  H    3.307905   3.423989   4.491901   4.296726   3.649556
    20  H    4.619730   3.967937   3.727863   4.319115   2.473434
    21  H    4.279873   3.199188   2.512188   3.735935   2.446045
    22  H    3.401882   2.402121   3.168039   3.896029   3.063133
                   16         17         18         19         20
    16  H    0.000000
    17  H    3.501596   0.000000
    18  H    2.376149   3.414158   0.000000
    19  H    2.931096   3.949062   1.621976   0.000000
    20  H    3.831040   4.445486   4.034680   2.757667   0.000000
    21  H    4.298588   5.888882   4.995534   3.742170   1.760560
    22  H    3.832595   5.426905   3.734832   2.283577   1.771294
                   21         22
    21  H    0.000000
    22  H    1.758745   0.000000
 Stoichiometry    C6H13NO2
 Framework group  C1[X(C6H13NO2)]
 Deg. of freedom    60
 Full point group                 C1      NOp   1
 Largest Abelian subgroup         C1      NOp   1
 Largest concise Abelian subgroup C1      NOp   1
                         Standard orientation:                         
 ---------------------------------------------------------------------
 Center     Atomic      Atomic             Coordinates (Angstroms)
 Number     Number       Type             X           Y           Z
 ---------------------------------------------------------------------
      1          6           0       -2.899671   -0.786096   -0.184967
      2          6           0       -2.059341    0.303366   -0.863427
      3          6           0       -0.707318    0.694411   -0.222548
      4          6           0        0.333833   -0.442082   -0.238018
      5          6           0        1.762888    0.121767   -0.227087
      6          8           0        2.694978   -0.864513   -0.163853
      7          8           0        2.081239    1.282220   -0.328712
      8          7           0        0.087399   -1.463186    0.797589
      9          6           0       -0.870848    1.349710    1.157031
     10          1           0       -3.868763   -0.882040   -0.688628
     11          1           0       -2.410266   -1.760200   -0.216664
     12          1           0       -3.103050   -0.555863    0.863886
     13          1           0       -2.659538    1.219856   -0.921998
     14          1           0       -1.872867    0.007410   -1.904567
     15          1           0       -0.287353    1.464624   -0.881885
     16          1           0        0.246031   -0.953541   -1.206867
     17          1           0        3.563376   -0.438609   -0.211256
     18          1           0        0.793652   -2.189822    0.747054
     19          1           0        0.174585   -1.050726    1.721745
     20          1           0        0.087766    1.700314    1.551551
     21          1           0       -1.528521    2.220181    1.085797
     22          1           0       -1.313837    0.672609    1.893332
 ---------------------------------------------------------------------
 Rotational constants (GHZ):      2.6970613      0.9984636      0.8724581
 Standard basis: 6-311++G(d,p) (5D, 7F)
 There are   298 symmetry adapted cartesian basis functions of A   symmetry.
 There are   289 symmetry adapted basis functions of A   symmetry.
   289 basis functions,   441 primitive gaussians,   298 cartesian basis functions
    36 alpha electrons       36 beta electrons
       nuclear repulsion energy       489.1323763871 Hartrees.
 NAtoms=   22 NActive=   22 NUniq=   22 SFac= 1.00D+00 NAtFMM=   60 NAOKFM=F Big=F
 Integral buffers will be    131072 words long.
 Raffenetti 2 integral format.
 Two-electron integral symmetry is turned on.
 One-electron integrals computed using PRISM.
 NBasis=   289 RedAO= T EigKep=  5.92D-06  NBF=   289
 NBsUse=   289 1.00D-06 EigRej= -1.00D+00 NBFU=   289
 Initial guess from the checkpoint file:  "Anth_337.chk"
 B after Tr=     0.000000    0.000000    0.000000
         Rot=    0.999976   -0.004905    0.004550    0.001795 Ang=  -0.79 deg.
 ExpMin= 3.60D-02 ExpMax= 8.59D+03 ExpMxC= 1.30D+03 IAcc=3 IRadAn=         5 AccDes= 0.00D+00
 Harris functional with IExCor=  402 and IRadAn=       5 diagonalized for initial guess.
 HarFok:  IExCor=  402 AccDes= 0.00D+00 IRadAn=         5 IDoV= 1 UseB2=F ITyADJ=14
 ICtDFT=  3500011 ScaDFX=  1.000000  1.000000  1.000000  1.000000
 FoFCou: FMM=F IPFlag=           0 FMFlag=      100000 FMFlg1=           0
         NFxFlg=           0 DoJE=T BraDBF=F KetDBF=T FulRan=T
         wScrn=  0.000000 ICntrl=     500 IOpCl=  0 I1Cent=   200000004 NGrid=           0
         NMat0=    1 NMatS0=      1 NMatT0=    0 NMatD0=    1 NMtDS0=    0 NMtDT0=    0
 Petite list used in FoFCou.
 Keep R1 ints in memory in canonical form, NReq=891693927.
 Requested convergence on RMS density matrix=1.00D-08 within 128 cycles.
 Requested convergence on MAX density matrix=1.00D-06.
 Requested convergence on             energy=1.00D-06.
 No special actions if energy rises.
 SCF Done:  E(RB3LYP) =  -441.819773217     A.U. after   13 cycles
            NFock= 13  Conv=0.30D-08     -V/T= 2.0042
 Calling FoFJK, ICntrl=      2127 FMM=F ISym2X=0 I1Cent= 0 IOpClX= 0 NMat=1 NMatS=1 NMatT=0.
 ***** Axes restored to original set *****
 -------------------------------------------------------------------
 Center     Atomic                   Forces (Hartrees/Bohr)
 Number     Number              X              Y              Z
 -------------------------------------------------------------------
      1        6          -0.001876072   -0.000382537    0.000175665
      2        6          -0.001077608   -0.000408898    0.000339716
      3        6           0.001697664   -0.004177666   -0.001593602
      4        6          -0.003909034    0.003487069   -0.000434164
      5        6           0.003156597   -0.006002926    0.001539869
      6        8          -0.002307470    0.002305811   -0.000339887
      7        8          -0.001706731    0.002421751   -0.000141534
      8        7           0.004665812   -0.001493942    0.000353701
      9        6          -0.000085932    0.002613481   -0.000284569
     10        1           0.001348629    0.000018827    0.000083812
     11        1           0.001141418    0.000800706   -0.000152318
     12        1           0.000412869    0.000131985   -0.000177099
     13        1           0.000421807    0.000001374    0.000306780
     14        1           0.000288756    0.000521842   -0.000377764
     15        1          -0.001030920    0.001530043   -0.000598174
     16        1           0.000882733    0.000763766    0.000161098
     17        1           0.000550640    0.000260391   -0.000110760
     18        1          -0.000827647   -0.000616651    0.001201856
     19        1          -0.000682096   -0.000271279   -0.000802103
     20        1          -0.000537108   -0.000787089    0.000284374
     21        1          -0.000188618   -0.000286191    0.000306603
     22        1          -0.000337691   -0.000429868    0.000258503
 -------------------------------------------------------------------
 Cartesian Forces:  Max     0.006002926 RMS     0.001605807

 GradGradGradGradGradGradGradGradGradGradGradGradGradGradGradGradGradGrad
 Berny optimization.
 Using GEDIIS/GDIIS optimizer.
 FormGI is forming the generalized inverse of G from B-inverse, IUseBI=4.
 Internal  Forces:  Max     0.003638135 RMS     0.000927472
 Search for a local minimum.
 Step number   2 out of a maximum of  118
 All quantities printed in internal units (Hartrees-Bohrs-Radians)
 Mixed Optimization -- En-DIIS/RFO-DIIS
 Update second derivatives using D2CorX and points    1    2
 DE= -5.72D-03 DEPred=-6.74D-03 R= 8.49D-01
 TightC=F SS=  1.41D+00  RLast= 3.25D-01 DXNew= 5.0454D-01 9.7575D-01
 Trust test= 8.49D-01 RLast= 3.25D-01 DXMaxT set to 5.05D-01
 ITU=  1  0
 Use linear search instead of GDIIS.
     Eigenvalues ---    0.00230   0.00234   0.00254   0.00317   0.00519
     Eigenvalues ---    0.00726   0.00989   0.02368   0.02814   0.02941
     Eigenvalues ---    0.03838   0.04275   0.04657   0.04898   0.04929
     Eigenvalues ---    0.05220   0.05278   0.05316   0.05507   0.05523
     Eigenvalues ---    0.06643   0.09236   0.12865   0.15807   0.16000
     Eigenvalues ---    0.16000   0.16000   0.16000   0.16000   0.16000
     Eigenvalues ---    0.16000   0.16058   0.17905   0.18041   0.18559
     Eigenvalues ---    0.19706   0.22275   0.24815   0.25488   0.28024
     Eigenvalues ---    0.28098   0.28622   0.29044   0.29804   0.30505
     Eigenvalues ---    0.31620   0.31833   0.31840   0.32003   0.32191
     Eigenvalues ---    0.32219   0.32341   0.32394   0.32412   0.35813
     Eigenvalues ---    0.42006   0.42049   0.53202   0.55050   1.01305
 RFO step:  Lambda=-1.50124218D-03 EMin= 2.29737335D-03
 Quartic linear search produced a step of -0.05427.
 Iteration  1 RMS(Cart)=  0.05600844 RMS(Int)=  0.00202663
 Iteration  2 RMS(Cart)=  0.00288079 RMS(Int)=  0.00077667
 Iteration  3 RMS(Cart)=  0.00000339 RMS(Int)=  0.00077667
 Iteration  4 RMS(Cart)=  0.00000000 RMS(Int)=  0.00077667
 Variable       Old X    -DE/DX   Delta X   Delta X   Delta X     New X
                                 (Linear)    (Quad)   (Total)
    R1        2.89898  -0.00051  -0.00002  -0.00157  -0.00159   2.89739
    R2        2.07183  -0.00110   0.00188  -0.00939  -0.00751   2.06432
    R3        2.06093   0.00005   0.00224  -0.00721  -0.00497   2.05596
    R4        2.06531   0.00026   0.00201  -0.00584  -0.00383   2.06148
    R5        2.92243  -0.00092  -0.00014  -0.00262  -0.00276   2.91967
    R6        2.07321  -0.00020   0.00208  -0.00746  -0.00537   2.06784
    R7        2.07555  -0.00066   0.00194  -0.00833  -0.00639   2.06916
    R8        2.91278   0.00165   0.00031   0.00450   0.00481   2.91760
    R9        2.90268  -0.00022   0.00028  -0.00164  -0.00137   2.90131
   R10        2.07382  -0.00189   0.00255  -0.01407  -0.01151   2.06230
   R11        2.90320  -0.00007  -0.00170   0.00537   0.00367   2.90687
   R12        2.78750  -0.00364  -0.00021  -0.00899  -0.00920   2.77830
   R13        2.07695  -0.00069   0.00188  -0.00824  -0.00636   2.07060
   R14        2.56721   0.00097  -0.00099   0.00489   0.00391   2.57111
   R15        2.28205  -0.00244  -0.00003  -0.00218  -0.00221   2.27985
   R16        1.82997   0.00049   0.00026   0.00001   0.00027   1.83024
   R17        1.91726   0.00067   0.00214  -0.00553  -0.00339   1.91387
   R18        1.91953   0.00010   0.00192  -0.00607  -0.00416   1.91537
   R19        2.06794  -0.00076   0.00195  -0.00863  -0.00668   2.06127
   R20        2.06606  -0.00008   0.00211  -0.00718  -0.00507   2.06099
   R21        2.06737  -0.00017   0.00183  -0.00651  -0.00468   2.06269
    A1        1.92108  -0.00072   0.00050  -0.00385  -0.00335   1.91773
    A2        1.95589  -0.00046  -0.00025  -0.00180  -0.00206   1.95383
    A3        1.95709  -0.00042  -0.00011  -0.00416  -0.00429   1.95280
    A4        1.88088   0.00107  -0.00122   0.01421   0.01299   1.89387
    A5        1.87006   0.00057  -0.00005   0.00327   0.00321   1.87327
    A6        1.87502   0.00008   0.00109  -0.00673  -0.00566   1.86936
    A7        2.06598  -0.00199  -0.00169  -0.00375  -0.00544   2.06054
    A8        1.89357   0.00065  -0.00035   0.00483   0.00445   1.89802
    A9        1.89744   0.00096  -0.00053   0.00664   0.00609   1.90353
   A10        1.86416   0.00057   0.00155  -0.00337  -0.00180   1.86236
   A11        1.88866   0.00022   0.00075  -0.00427  -0.00348   1.88518
   A12        1.84147  -0.00027   0.00049   0.00013   0.00061   1.84208
[...]
    22  H    0.020096  -0.034375   0.000743  -0.032048   0.001528   0.003220
               7          8          9         10         11         12
     1  C   -0.005370   0.001681  -0.086643   0.389746   0.426100   0.390059
     2  C    0.011730  -0.006314  -0.037390  -0.054194  -0.042261  -0.009019
     3  C   -0.127546  -0.026255   0.057567   0.015053   0.006596  -0.010895
     4  C    0.030691  -0.205490  -0.509043   0.020188  -0.052473  -0.004364
     5  C    0.458780   0.046822   0.301647  -0.000971  -0.003414  -0.003603
     6  O   -0.159072  -0.038740  -0.001888  -0.000086   0.000070  -0.000265
     7  O    8.025710   0.016265   0.011986   0.000046   0.000193  -0.000049
     8  N    0.016265   6.726790   0.101451   0.000043  -0.020357  -0.002806
     9  C    0.011986   0.101451   5.774969  -0.000583   0.002326  -0.007572
    10  H    0.000046   0.000043  -0.000583   0.564206  -0.026246  -0.026315
    11  H    0.000193  -0.020357   0.002326  -0.026246   0.542796  -0.050683
    12  H   -0.000049  -0.002806  -0.007572  -0.026315  -0.050683   0.590871
    13  H    0.000560   0.000279   0.010013  -0.006412   0.010250  -0.007539
    14  H    0.000909  -0.003629  -0.000387  -0.006655  -0.012318   0.008057
    15  H   -0.001610   0.003795  -0.084861  -0.001524  -0.000089   0.002576
    16  H    0.005480  -0.036252   0.006713   0.000295   0.005353   0.000671
    17  H   -0.003826   0.007785   0.007386  -0.000010  -0.000225   0.000056
    18  H    0.001441   0.399707   0.009469   0.000009   0.002430  -0.000558
    19  H   -0.004501   0.391670  -0.009170  -0.000583  -0.002565   0.001962
    20  H   -0.003667  -0.020306   0.362832   0.000431  -0.001679   0.000292
    21  H   -0.002038   0.007286   0.418378  -0.000776   0.002365  -0.004235
    22  H    0.000414   0.006533   0.410872  -0.002393   0.001748  -0.000918
              13         14         15         16         17         18
     1  C   -0.063721  -0.045735   0.010670  -0.004814  -0.000211  -0.004462
     2  C    0.446053   0.386164  -0.043305   0.000480  -0.001967  -0.004423
     3  C   -0.101088   0.036784   0.535305  -0.081052   0.011932   0.027191
     4  C    0.020313  -0.049706  -0.105468   0.439435  -0.074143  -0.098011
     5  C   -0.001285   0.016255  -0.035450  -0.083245   0.072040   0.030875
     6  O    0.000266   0.000992  -0.001827   0.008014   0.226897   0.000544
     7  O    0.000560   0.000909  -0.001610   0.005480  -0.003826   0.001441
     8  N    0.000279  -0.003629   0.003795  -0.036252   0.007785   0.399707
     9  C    0.010013  -0.000387  -0.084861   0.006713   0.007386   0.009469
    10  H   -0.006412  -0.006655  -0.001524   0.000295  -0.000010   0.000009
    11  H    0.010250  -0.012318  -0.000089   0.005353  -0.000225   0.002430
    12  H   -0.007539   0.008057   0.002576   0.000671   0.000056  -0.000558
    13  H    0.579645  -0.030021  -0.015567   0.004034  -0.000077   0.000333
    14  H   -0.030021   0.600366  -0.002721  -0.000501   0.000345   0.000097
    15  H   -0.015567  -0.002721   0.517902  -0.009798   0.000740  -0.000607
    16  H    0.004034  -0.000501  -0.009798   0.532514  -0.005584  -0.021090
    17  H   -0.000077   0.000345   0.000740  -0.005584   0.472037   0.001574
    18  H    0.000333   0.000097  -0.000607  -0.021090   0.001574   0.453823
    19  H   -0.001237   0.001625   0.001963   0.008037   0.001890  -0.054531
    20  H   -0.001054  -0.003279  -0.005689   0.002123  -0.002846  -0.000187
    21  H   -0.002319   0.001252  -0.003993  -0.003046   0.000721   0.000548
    22  H    0.005178  -0.000619   0.005306  -0.001932  -0.000043  -0.000775
              19         20         21         22
     1  C    0.015580   0.003488   0.003094   0.020096
     2  C   -0.004313   0.027781  -0.019603  -0.034375
     3  C    0.024624  -0.087320  -0.044386   0.000743
     4  C   -0.065306   0.103044  -0.024498  -0.032048
     5  C   -0.000323  -0.050021   0.021458   0.001528
     6  O   -0.017296   0.008520  -0.001318   0.003220
     7  O   -0.004501  -0.003667  -0.002038   0.000414
     8  N    0.391670  -0.020306   0.007286   0.006533
     9  C   -0.009170   0.362832   0.418378   0.410872
    10  H   -0.000583   0.000431  -0.000776  -0.002393
    11  H   -0.002565  -0.001679   0.002365   0.001748
    12  H    0.001962   0.000292  -0.004235  -0.000918
    13  H   -0.001237  -0.001054  -0.002319   0.005178
    14  H    0.001625  -0.003279   0.001252  -0.000619
    15  H    0.001963  -0.005689  -0.003993   0.005306
    16  H    0.008037   0.002123  -0.003046  -0.001932
    17  H    0.001890  -0.002846   0.000721  -0.000043
    18  H   -0.054531  -0.000187   0.000548  -0.000775
    19  H    0.456300  -0.001105   0.000463   0.003659
    20  H   -0.001105   0.568991  -0.025129  -0.040890
    21  H    0.000463  -0.025129   0.540691  -0.028412
    22  H    0.003659  -0.040890  -0.028412   0.542471
 Mulliken charges:
               1
     1  C   -0.626879
     2  C   -0.232098
     3  C    0.427823
     4  C   -0.269763
     5  C   -0.278810
     6  O   -0.148449
     7  O   -0.256526
     8  N   -0.349957
     9  C   -0.738070
    10  H    0.136731
    11  H    0.212081
    12  H    0.134277
    13  H    0.153396
    14  H    0.102725
    15  H    0.234251
    16  H    0.234167
    17  H    0.285532
    18  H    0.256603
    19  H    0.253160
    20  H    0.165670
    21  H    0.163498
    22  H    0.140637
 Sum of Mulliken charges =   0.00000
 Mulliken charges with hydrogens summed into heavy atoms:
               1
     1  C   -0.143790
     2  C    0.024024
     3  C    0.662074
     4  C   -0.035597
     5  C   -0.278810
     6  O    0.137083
     7  O   -0.256526
     8  N    0.159806
     9  C   -0.268266
 Electronic spatial extent (au):  <R**2>=           1424.6011
 Charge=              0.0000 electrons
 Dipole moment (field-independent basis, Debye):
    X=              0.4562    Y=             -1.1338    Z=              0.9909  Tot=              1.5734
 Quadrupole moment (field-independent basis, Debye-Ang):
   XX=            -55.9270   YY=            -59.7719   ZZ=            -56.2279
   XY=             -6.4763   XZ=              2.9679   YZ=              2.6045
 Traceless Quadrupole moment (field-independent basis, Debye-Ang):
   XX=              1.3819   YY=             -2.4629   ZZ=              1.0810
   XY=             -6.4763   XZ=              2.9679   YZ=              2.6045
 Octapole moment (field-independent basis, Debye-Ang**2):
  XXX=             44.9034  YYY=             -8.6501  ZZZ=             -2.0901  XYY=              2.9829
  XXY=             -6.7448  XXZ=             12.4180  XZZ=              5.2284  YZZ=             -4.9189
  YYZ=              2.7806  XYZ=              7.2906
 Hexadecapole moment (field-independent basis, Debye-Ang**3):
 XXXX=          -1124.1149 YYYY=           -349.7136 ZZZZ=           -291.1484 XXXY=            -32.6592
 XXXZ=             48.7466 YYYX=            -24.5162 YYYZ=              2.6630 ZZZX=              2.5333
 ZZZY=             -2.3976 XXYY=           -292.0022 XXZZ=           -252.6226 YYZZ=           -106.0020
 XXYZ=             14.0876 YYXZ=             -0.5312 ZZXY=             -4.8014
 N-N= 4.903306339221D+02 E-N=-2.012214696912D+03  KE= 4.399753764526D+02

 **********************************************************************

            Electrostatic Properties Using The SCF Density

 **********************************************************************

       Atomic Center    1 is at  -2.977258 -0.486066 -0.234684
       Atomic Center    2 is at  -2.058697  0.692458 -0.580596
       Atomic Center    3 is at  -0.655874  0.728180  0.068947
       Atomic Center    4 is at   0.328679 -0.314934 -0.539835
       Atomic Center    5 is at   1.766405  0.165547 -0.288847
       Atomic Center    6 is at   2.471864 -0.647069  0.539446
       Atomic Center    7 is at   2.245174  1.164932 -0.765479
       Atomic Center    8 is at   0.033305 -1.685254 -0.137541
       Atomic Center    9 is at  -0.706741  0.657589  1.602235
       Atomic Center   10 is at  -3.931100 -0.381676 -0.760456
       Atomic Center   11 is at  -2.527400 -1.439078 -0.513245
       Atomic Center   12 is at  -3.200798 -0.523150  0.835422
       Atomic Center   13 is at  -2.563106  1.624964 -0.298797
       Atomic Center   14 is at  -1.930570  0.742603 -1.668474
       Atomic Center   15 is at  -0.229569  1.699848 -0.200918
       Atomic Center   16 is at   0.213688 -0.254496 -1.627079
       Atomic Center   17 is at   3.351713 -0.251705  0.636860
       Atomic Center   18 is at   0.618092 -2.341857 -0.643269
       Atomic Center   19 is at   0.227416 -1.825780  0.847918
       Atomic Center   20 is at   0.281957  0.804280  2.047416
       Atomic Center   21 is at  -1.360300  1.441765  1.994360
       Atomic Center   22 is at  -1.098558 -0.298482  1.957999
 -----------------------------------------------------------------

              Electrostatic Properties (Atomic Units)

 -----------------------------------------------------------------
    Center     Electric         -------- Electric Field --------
               Potential          X             Y             Z
 -----------------------------------------------------------------
    1 Atom    -14.796680      0.002109      0.000521     -0.001066
    2 Atom    -14.778014      0.000252     -0.002226      0.001346
    3 Atom    -14.759575     -0.002506      0.000051     -0.000065
    4 Atom    -14.721331     -0.002649      0.005515     -0.000171
    5 Atom    -14.641176     -0.016187     -0.004230     -0.003757
    6 Atom    -22.311864     -0.013516     -0.037379      0.018929
    7 Atom    -22.375301      0.019433      0.042848     -0.021226
    8 Atom    -18.407549     -0.033046     -0.005873     -0.006655
    9 Atom    -14.780317     -0.000006      0.000116     -0.002623
   10 Atom     -1.136338     -0.015557      0.001600     -0.008542
   11 Atom     -1.143189      0.007496     -0.016136     -0.004641
   12 Atom     -1.136997     -0.003711     -0.000643      0.017429
   13 Atom     -1.134478     -0.008204      0.015078      0.004458
   14 Atom     -1.133805      0.001935      0.000894     -0.017554
   15 Atom     -1.129441      0.006802      0.016295     -0.004566
   16 Atom     -1.102050     -0.002073      0.000962     -0.018288
   17 Atom     -0.950114      0.022839      0.009138      0.003305
   18 Atom     -1.055541      0.011877     -0.014056     -0.010472
   19 Atom     -1.056863      0.003712     -0.003280      0.020638
   20 Atom     -1.119846      0.016134      0.002458      0.007309
   21 Atom     -1.120162     -0.010738      0.012862      0.006509
   22 Atom     -1.121930     -0.006622     -0.015680      0.006181
 -----------------------------------------------------------------
 -----------------------------------------------------
    Center         ---- Electric Field Gradient ----
                     XX            YY            ZZ
 -----------------------------------------------------
    1 Atom     -500.273478   -500.252624   -500.254939
    2 Atom     -500.352736   -500.297810   -500.291415
    3 Atom     -500.338592   -500.307308   -500.346813
    4 Atom     -500.424642   -500.507232   -500.255314
    5 Atom     -501.265231   -501.492691   -501.800424
    6 Atom    -1238.191290  -1236.548539  -1236.662623
    7 Atom    -1237.030700  -1238.588641  -1238.248056
    8 Atom     -811.756942   -813.361205   -813.156703
    9 Atom     -500.262374   -500.254512   -500.326201
   10 Atom       -2.036615     -1.696335     -1.795727
   11 Atom       -1.755540     -2.034489     -1.715758
   12 Atom       -1.712505     -1.694430     -2.132210
   13 Atom       -1.807302     -2.030446     -1.738039
   14 Atom       -1.721241     -1.706927     -2.146129
   15 Atom       -1.789045     -2.066789     -1.747223
   16 Atom       -1.713800     -1.714500     -2.137629
   17 Atom       -2.052831     -1.608530     -1.506232
   18 Atom       -1.797222     -1.891764     -1.797187
   19 Atom       -1.613575     -1.668161     -2.196476
   20 Atom       -2.062000     -1.692776     -1.765952
   21 Atom       -1.846127     -1.918936     -1.745466
   22 Atom       -1.749033     -2.043451     -1.742037
 -----------------------------------------------------
 -----------------------------------------------------
    Center         ---- Electric Field Gradient ----
                     XY            XZ            YZ
 -----------------------------------------------------
    1 Atom       -0.064447      0.002007      0.025106
    2 Atom       -0.013744     -0.037013      0.018922
    3 Atom        0.087653      0.024181     -0.048183
    4 Atom       -0.111370     -0.006262      0.061517
    5 Atom        0.299949      0.065464     -0.188114
    6 Atom        0.061350     -0.942071      0.407592
    7 Atom       -0.318111      0.945131     -0.270186
    8 Atom        0.252513      0.308722      0.108455
    9 Atom        0.001475      0.000025     -0.004320
   10 Atom        0.037277     -0.191968      0.024857
   11 Atom        0.157376      0.051614     -0.103285
   12 Atom       -0.007015      0.089837      0.013139
   13 Atom        0.170707      0.051257     -0.099757
   14 Atom       -0.004044      0.052920      0.018573
   15 Atom       -0.144844      0.041096      0.093694
   16 Atom        0.000174     -0.046736      0.023972
   17 Atom       -0.234542     -0.078124     -0.011316
   18 Atom        0.229393      0.187010     -0.178336
   19 Atom        0.026511     -0.104220      0.074800
   20 Atom       -0.055245     -0.162587     -0.025388
   21 Atom        0.197760      0.095711     -0.115376
   22 Atom       -0.141690      0.053485      0.128638
 -----------------------------------------------------
 -----------------------------------------------------
    Center         ---- Electric Field Gradient ----
                   ----       Eigenvalues       ----
 -----------------------------------------------------
    1 Atom     -500.332547   -500.256007   -500.192486
    2 Atom     -500.370424   -500.311542   -500.259993
    3 Atom     -500.439152   -500.324064   -500.229497
    4 Atom     -500.591399   -500.361175   -500.234614
    5 Atom     -501.950554   -501.553692   -501.054100
    6 Atom    -1238.665807  -1236.741588  -1235.995059
    7 Atom    -1238.811525  -1238.618405  -1236.437467
    8 Atom     -813.418140   -813.207294   -811.649416
    9 Atom     -500.326460   -500.262632   -500.253994
   10 Atom       -2.147217     -1.694606     -1.686854
   11 Atom       -2.136908     -1.688970     -1.679909
   12 Atom       -2.151078     -1.698264     -1.689803
   13 Atom       -2.153101     -1.715616     -1.707071
   14 Atom       -2.153424     -1.715091     -1.705783
   15 Atom       -2.154290     -1.727425     -1.721341
   16 Atom       -2.144045     -1.714235     -1.707648
   17 Atom       -2.162594     -1.523476     -1.481524
   18 Atom       -2.230866     -1.660664     -1.594643
   19 Atom       -2.225535     -1.659892     -1.592785
   20 Atom       -2.142078     -1.694181     -1.684470
   21 Atom       -2.140501     -1.688589     -1.681439
   22 Atom       -2.148327     -1.694952     -1.691242
 -----------------------------------------------------
 -----------------------------------------------------
    Center         ---- Electric Field Gradient ----
                       ( tensor representation )
                   3XX-RR        3YY-RR        3ZZ-RR
 -----------------------------------------------------
    1 Atom       -0.013131      0.007723      0.005408
    2 Atom       -0.038749      0.016177      0.022572
    3 Atom       -0.007688      0.023596     -0.015909
    4 Atom       -0.028912     -0.111503      0.140415
    5 Atom        0.254218      0.026758     -0.280976
    6 Atom       -1.057139      0.585612      0.471528
    7 Atom        0.925099     -0.632842     -0.292257
    8 Atom        1.001342     -0.602922     -0.398420
    9 Atom        0.018655      0.026517     -0.045172
   10 Atom       -0.193723      0.146557      0.047166
   11 Atom        0.079723     -0.199227      0.119504
   12 Atom        0.133877      0.151952     -0.285828
   13 Atom        0.051294     -0.171851      0.120557
   14 Atom        0.136858      0.151172     -0.288030
   15 Atom        0.078641     -0.199103      0.120463
   16 Atom        0.141509      0.140810     -0.282319
   17 Atom       -0.330300      0.114001      0.216299
   18 Atom        0.031503     -0.063040      0.031537
   19 Atom        0.212496      0.157909     -0.370406
   20 Atom       -0.221757      0.147466      0.074290
   21 Atom       -0.009284     -0.082093      0.091377
   22 Atom        0.095807     -0.198611      0.102804
 -----------------------------------------------------
 -----------------------------------------------------
    Center         ---- Electric Field Gradient ----
                       ( tensor representation )
                   ----       Eigenvalues       ----
 -----------------------------------------------------
    1 Atom       -0.072201      0.004339      0.067861
    2 Atom       -0.056438      0.002444      0.053993
    3 Atom       -0.108248      0.006840      0.101407
    4 Atom       -0.195670      0.034554      0.161115
    5 Atom       -0.431105     -0.034244      0.465349
    6 Atom       -1.531656      0.392563      1.139093
    7 Atom       -0.855726     -0.662606      1.518332
    8 Atom       -0.659856     -0.449011      1.108867
    9 Atom       -0.045432      0.018397      0.027035
   10 Atom       -0.304325      0.148286      0.156039
   11 Atom       -0.301646      0.146292      0.155354
   12 Atom       -0.304696      0.148117      0.156579
   13 Atom       -0.294506      0.142980      0.151525
   14 Atom       -0.295324      0.143008      0.152316
   15 Atom       -0.286605      0.140260      0.146345
   16 Atom       -0.288736      0.141075      0.147661
   17 Atom       -0.440063      0.199055      0.241007
   18 Atom       -0.402142      0.168061      0.234081
   19 Atom       -0.399465      0.166179      0.233286
   20 Atom       -0.301835      0.146062      0.155773
   21 Atom       -0.303658      0.148254      0.155404
   22 Atom       -0.303486      0.149888      0.153598
 -----------------------------------------------------

 Test job not archived.
 1|1|UNPC-NP-ALMACH|FOpt|RB3LYP|6-311++G(d,p)|C6H13N1O2|HERA|04-Aug-201
 8|0||# RB3LYP/6-311++G** Opt Test prop=EFG||C6NH13O2||0,1|C,-2.0792216
 455,-0.3843616051,-1.0561078029|C,-0.8891587895,-1.2868501304,-0.70740
 359|C,0.4714597648,-0.6088234935,-0.4244012705|C,0.5207677548,0.115632
 4388,0.9542864677|C,1.9883073141,0.2267947311,1.3957424071|O,2.4387398
 281,1.5062663121,1.4601760141|O,2.6944447836,-0.7144811033,1.661328495
 |N,-0.2498304062,1.3535349196,0.9795798978|C,0.9386255155,0.2940771623
 ,-1.575517981|H,-2.9704091853,-0.9943690619,-1.2316747193|H,-2.2927349
 394,0.3234472276,-0.255096792|H,-1.8963525922,0.1902733944,-1.96870066
 |H,-0.7279391568,-1.9899231117,-1.5339036377|H,-1.1475572004,-1.905059
 509,0.1606162264|H,1.1953980783,-1.4250645338,-0.3329502827|H,0.074779
 8753,-0.56967507,1.6825888809|H,3.3671290793,1.4626158984,1.7360823281
 |H,-0.2898763702,1.7323496582,1.9196645126|H,0.1832671488,2.0644707427
 ,0.4003118706|H,1.953288064,0.6687108855,-1.4101755921|H,0.9470805268,
 -0.2661532232,-2.5146156726|H,0.2801665523,1.1545374712,-1.7176490993|
 |Version=EM64W-G09RevD.01|State=1-A|HF=-441.8211389|RMSD=9.015e-009|RM
 SF=7.277e-006|Dipole=0.0594417,0.6153258,-0.031925|Quadrupole=-1.56785
 02,-0.0885386,1.6563889,4.6849539,-1.232421,2.8735105|PG=C01 [X(C6H13N
 1O2)]||@


 FLOATING POINT NUMBERS ARE LIKE SANDPILES:
 EVERY TIME THAT YOU MOVE ONE, YOU LOSE A LITTLE SAND 
 AND YOU PICK UP A LITTLE DIRT.
 Job cpu time:       0 days  0 hours 24 minutes  4.0 seconds.
 File lengths (MBytes):  RWF=     39 Int=      0 D2E=      0 Chk=      7 Scr=      1
 Normal termination of Gaussian 09 at Sat Aug 04 03:30:13 2018.
