 Entering Link 1 = C:\G09W\l1.exe PID=     17556.
  
 Copyright (c) 1988,1990,1992,1993,1995,1998,2003,2009,2013,
            Gaussian, Inc.  All Rights Reserved.
  
 This is part of the Gaussian(R) 09 program.  It is based on
 the Gaussian(R) 03 system (copyright 2003, Gaussian, Inc.),
 the Gaussian(R) 98 system (copyright 1998, Gaussian, Inc.),
 the Gaussian(R) 94 system (copyright 1995, Gaussian, Inc.),
 the Gaussian 92(TM) system (copyright 1992, Gaussian, Inc.),
 the Gaussian 90(TM) system (copyright 1990, Gaussian, Inc.),
 the Gaussian 88(TM) system (copyright 1988, Gaussian, Inc.),
 the Gaussian 86(TM) system (copyright 1986, Carnegie Mellon
 University), and the Gaussian 82(TM) system (copyright 1983,
 Carnegie Mellon University). Gaussian is a federally registered
 trademark of Gaussian, Inc.
  
 This software contains proprietary and confidential information,
 including trade secrets, belonging to Gaussian, Inc.
  
 This software is provided under written license and may be
 used, copied, transmitted, or stored only in accord with that
 written license.
  
 The following legend is applicable only to US Government
 contracts under FAR:
  
                    RESTRICTED RIGHTS LEGEND
  
 Use, reproduction and disclosure by the US Government is
 subject to restrictions as set forth in subparagraphs (a)
 and (c) of the Commercial Computer Software - Restricted
 Rights clause in FAR 52.227-19.
  
 Gaussian, Inc.
 340 Quinnipiac St., Bldg. 40, Wallingford CT 06492
  
  
 ---------------------------------------------------------------
 Warning -- This program may not be used in any manner that
 competes with the business of Gaussian, Inc. or will provide
 assistance to any competitor of Gaussian, Inc.  The licensee
 of this program is prohibited from giving any competitor of
 Gaussian, Inc. access to this program.  By using this program,
 the user acknowledges that Gaussian, Inc. is engaged in the
 business of creating and licensing software in the field of
 computational chemistry and represents and warrants to the
 licensee that it is not a competitor of Gaussian, Inc. and that
 it will not use this program in any manner prohibited above.
 ---------------------------------------------------------------
  

 Cite this work as:
 Gaussian 09, Revision D.01,
 M. J. Frisch, G. W. Trucks, H. B. Schlegel, G. E. Scuseria, 
 M. A. Robb, J. R. Cheeseman, G. Scalmani, V. Barone, B. Mennucci, 
 G. A. Petersson, H. Nakatsuji, M. Caricato, X. Li, H. P. Hratchian, 
 A. F. Izmaylov, J. Bloino, G. Zheng, J. L. Sonnenberg, M. Hada, 
 M. Ehara, K. Toyota, R. Fukuda, J. Hasegawa, M. Ishida, T. Nakajima, 
 Y. Honda, O. Kitao, H. Nakai, T. Vreven, J. A. Montgomery, Jr., 
 J. E. Peralta, F. Ogliaro, M. Bearpark, J. J. Heyd, E. Brothers, 
 K. N. Kudin, V. N. Staroverov, T. Keith, R. Kobayashi, J. Normand, 
 K. Raghavachari, A. Rendell, J. C. Burant, S. S. Iyengar, J. Tomasi, 
 M. Cossi, N. Rega, J. M. Millam, M. Klene, J. E. Knox, J. B. Cross, 
 V. Bakken, C. Adamo, J. Jaramillo, R. Gomperts, R. E. Stratmann, 
 O. Yazyev, A. J. Austin, R. Cammi, C. Pomelli, J. W. Ochterski, 
 R. L. Martin, K. Morokuma, V. G. Zakrzewski, G. A. Voth, 
 P. Salvador, J. J. Dannenberg, S. Dapprich, A. D. Daniels, 
 O. Farkas, J. B. Foresman, J. V. Ortiz, J. Cioslowski, 
 and D. J. Fox, Gaussian, Inc., Wallingford CT, 2013.
 
 ******************************************
 Gaussian 09:  EM64W-G09RevD.01 13-Apr-2013
                04-Aug-2018 
 ******************************************
 %Chk=Anth_340.chk
 %Mem=64GB
 %NProcShared=20
 Will use up to   20 processors via shared memory.
 -------------------------------------
 # RB3LYP/6-311++G** Opt Test prop=EFG
 -------------------------------------
 1/14=-1,18=20,19=15,26=3,38=1/1,3;
 2/9=110,12=2,17=6,18=5,40=1/2;
 3/5=4,6=6,7=1111,11=2,16=1,25=1,30=1,71=1,74=-5,116=1/1,2,3;
 4//1;
 5/5=2,38=5/2;
 6/7=2,8=2,9=2,10=2,14=1,28=1/1,2;
 7//1,2,3,16;
 1/14=-1,18=20,19=15,26=3/3(2);
 2/9=110/2;
 99//99;
 2/9=110/2;
 3/5=4,6=6,7=1111,11=2,16=1,25=1,30=1,71=1,74=-5,116=1/1,2,3;
 4/5=5,16=3,69=1/1;
 5/5=2,38=5/2;
 7//1,2,3,16;
 1/14=-1,18=20,19=15,26=3/3(-5);
 2/9=110/2;
 6/7=2,8=2,9=2,10=2,14=1,19=2,28=1/1,2;
 99/9=1/99;
 --------
 C9NH11O3
 --------
 Symbolic Z-matrix:
 Charge =  0 Multiplicity = 1
 O                     1.50834   0.95335   1.87801 
 C                     2.00353   1.82726   0.97337 
 O                     2.17726   3.00792   1.17997 
 C                     2.30978   1.12794  -0.34045 
 N                     3.30049   1.91785  -1.08984 
 C                     1.04159   0.93529  -1.1879 
 C                     0.03018   0.11731  -0.41556 
 C                     0.20725  -1.20399  -0.24566 
 C                    -0.65903  -1.92598   0.48023 
 C                    -1.72972  -1.35695   1.05911 
 C                    -1.90196  -0.03577   0.88653 
 C                    -1.03797   0.69186   0.1631 
 O                    -2.6076   -2.08503   1.80016 
 H                     1.31271   0.09365   1.46922 
 H                     2.77742   0.13834  -0.11846 
 H                     3.25519   1.71017  -2.10228 
 H                     3.09476   2.92939  -1.00996 
 H                     0.62323   1.92961  -1.4682 
 H                     1.28843   0.41398  -2.14242 
 H                     1.08127  -1.70338  -0.69553 
 H                    -0.4884   -3.00792   0.61037 
 H                    -2.76742   0.46099   1.35649 
 H                    -1.20457   1.77684   0.05986 
 H                    -3.30049  -1.49733   2.14242 
 

 GradGradGradGradGradGradGradGradGradGradGradGradGradGradGradGradGradGrad
 Berny optimization.
 Initialization pass.
                           ----------------------------
                           !    Initial Parameters    !
                           ! (Angstroms and Degrees)  !
 --------------------------                            --------------------------
 ! Name  Definition              Value          Derivative Info.                !
 --------------------------------------------------------------------------------
 ! R1    R(1,2)                  1.3518         estimate D2E/DX2                !
 ! R2    R(1,14)                 0.9718         estimate D2E/DX2                !
 ! R3    R(2,3)                  1.2111         estimate D2E/DX2                !
 ! R4    R(2,4)                  1.5195         estimate D2E/DX2                !
 ! R5    R(4,5)                  1.4721         estimate D2E/DX2                !
 ! R6    R(4,6)                  1.5374         estimate D2E/DX2                !
 ! R7    R(4,15)                 1.1168         estimate D2E/DX2                !
 ! R8    R(5,16)                 1.0345         estimate D2E/DX2                !
 ! R9    R(5,17)                 1.0353         estimate D2E/DX2                !
 ! R10   R(6,7)                  1.5128         estimate D2E/DX2                !
 ! R11   R(6,18)                 1.1146         estimate D2E/DX2                !
 ! R12   R(6,19)                 1.1153         estimate D2E/DX2                !
 ! R13   R(7,8)                  1.3439         estimate D2E/DX2                !
 ! R14   R(7,12)                 1.3438         estimate D2E/DX2                !
 ! R15   R(8,9)                  1.3411         estimate D2E/DX2                !
 ! R16   R(8,20)                 1.1026         estimate D2E/DX2                !
 ! R17   R(9,10)                 1.3436         estimate D2E/DX2                !
 ! R18   R(9,21)                 1.103          estimate D2E/DX2                !
 ! R19   R(10,11)                1.3435         estimate D2E/DX2                !
 ! R20   R(10,13)                1.3601         estimate D2E/DX2                !
 ! R21   R(11,12)                1.3414         estimate D2E/DX2                !
 ! R22   R(11,22)                1.103          estimate D2E/DX2                !
 ! R23   R(12,23)                1.1025         estimate D2E/DX2                !
 ! R24   R(13,24)                0.9709         estimate D2E/DX2                !
 ! A1    A(2,1,14)             111.3544         estimate D2E/DX2                !
 ! A2    A(1,2,3)              124.6537         estimate D2E/DX2                !
 ! A3    A(1,2,4)              110.7889         estimate D2E/DX2                !
 ! A4    A(3,2,4)              124.5573         estimate D2E/DX2                !
 ! A5    A(2,4,5)              109.198          estimate D2E/DX2                !
 ! A6    A(2,4,6)              111.5928         estimate D2E/DX2                !
 ! A7    A(2,4,15)             108.6829         estimate D2E/DX2                !
 ! A8    A(5,4,6)              109.9857         estimate D2E/DX2                !
 ! A9    A(5,4,15)             107.1493         estimate D2E/DX2                !
 ! A10   A(6,4,15)             110.1169         estimate D2E/DX2                !
 ! A11   A(4,5,16)             111.1626         estimate D2E/DX2                !
 ! A12   A(4,5,17)             110.5644         estimate D2E/DX2                !
 ! A13   A(16,5,17)            105.2444         estimate D2E/DX2                !
 ! A14   A(4,6,7)              109.7455         estimate D2E/DX2                !
 ! A15   A(4,6,18)             109.6613         estimate D2E/DX2                !
 ! A16   A(4,6,19)             110.351          estimate D2E/DX2                !
 ! A17   A(7,6,18)             111.0891         estimate D2E/DX2                !
 ! A18   A(7,6,19)             109.4015         estimate D2E/DX2                !
 ! A19   A(18,6,19)            106.5491         estimate D2E/DX2                !
 ! A20   A(6,7,8)              120.5356         estimate D2E/DX2                !
 ! A21   A(6,7,12)             121.3373         estimate D2E/DX2                !
 ! A22   A(8,7,12)             118.076          estimate D2E/DX2                !
 ! A23   A(7,8,9)              120.8385         estimate D2E/DX2                !
 ! A24   A(7,8,20)             119.879          estimate D2E/DX2                !
 ! A25   A(9,8,20)             119.2776         estimate D2E/DX2                !
 ! A26   A(8,9,10)             121.3277         estimate D2E/DX2                !
 ! A27   A(8,9,21)             119.4722         estimate D2E/DX2                !
 ! A28   A(10,9,21)            119.1993         estimate D2E/DX2                !
 ! A29   A(9,10,11)            117.5995         estimate D2E/DX2                !
 ! A30   A(9,10,13)            121.492          estimate D2E/DX2                !
 ! A31   A(11,10,13)           120.9077         estimate D2E/DX2                !
 ! A32   A(10,11,12)           121.3423         estimate D2E/DX2                !
 ! A33   A(10,11,22)           119.2583         estimate D2E/DX2                !
 ! A34   A(12,11,22)           119.3976         estimate D2E/DX2                !
 ! A35   A(7,12,11)            120.8159         estimate D2E/DX2                !
 ! A36   A(7,12,23)            120.0345         estimate D2E/DX2                !
 ! A37   A(11,12,23)           119.1425         estimate D2E/DX2                !
 ! A38   A(10,13,24)           109.188          estimate D2E/DX2                !
 ! D1    D(14,1,2,3)           170.6459         estimate D2E/DX2                !
 ! D2    D(14,1,2,4)            -9.2106         estimate D2E/DX2                !
 ! D3    D(1,2,4,5)           -157.7909         estimate D2E/DX2                !
 ! D4    D(1,2,4,6)             80.4035         estimate D2E/DX2                !
 ! D5    D(1,2,4,15)           -41.218          estimate D2E/DX2                !
 ! D6    D(3,2,4,5)             22.3524         estimate D2E/DX2                !
 ! D7    D(3,2,4,6)            -99.4532         estimate D2E/DX2                !
 ! D8    D(3,2,4,15)           138.9254         estimate D2E/DX2                !
 ! D9    D(2,4,5,16)          -157.0562         estimate D2E/DX2                !
 ! D10   D(2,4,5,17)           -40.5446         estimate D2E/DX2                !
 ! D11   D(6,4,5,16)           -34.2849         estimate D2E/DX2                !
 ! D12   D(6,4,5,17)            82.2266         estimate D2E/DX2                !
 ! D13   D(15,4,5,16)           85.4002         estimate D2E/DX2                !
 ! D14   D(15,4,5,17)         -158.0883         estimate D2E/DX2                !
 ! D15   D(2,4,6,7)            -58.9302         estimate D2E/DX2                !
 ! D16   D(2,4,6,18)            63.3604         estimate D2E/DX2                !
 ! D17   D(2,4,6,19)          -179.5659         estimate D2E/DX2                !
 ! D18   D(5,4,6,7)            179.7204         estimate D2E/DX2                !
 ! D19   D(5,4,6,18)           -57.989          estimate D2E/DX2                !
 ! D20   D(5,4,6,19)            59.0847         estimate D2E/DX2                !
 ! D21   D(15,4,6,7)            61.8576         estimate D2E/DX2                !
 ! D22   D(15,4,6,18)         -175.8518         estimate D2E/DX2                !
 ! D23   D(15,4,6,19)          -58.7781         estimate D2E/DX2                !
 ! D24   D(4,6,7,8)            -73.7521         estimate D2E/DX2                !
 ! D25   D(4,6,7,12)           103.6003         estimate D2E/DX2                !
 ! D26   D(18,6,7,8)           164.8104         estimate D2E/DX2                !
 ! D27   D(18,6,7,12)          -17.8371         estimate D2E/DX2                !
 ! D28   D(19,6,7,8)            47.4566         estimate D2E/DX2                !
 ! D29   D(19,6,7,12)         -135.1909         estimate D2E/DX2                !
 ! D30   D(6,7,8,9)            177.4768         estimate D2E/DX2                !
 ! D31   D(6,7,8,20)            -1.7116         estimate D2E/DX2                !
 ! D32   D(12,7,8,9)             0.0397         estimate D2E/DX2                !
 ! D33   D(12,7,8,20)         -179.1487         estimate D2E/DX2                !
 ! D34   D(6,7,12,11)         -177.5445         estimate D2E/DX2                !
 ! D35   D(6,7,12,23)            1.4838         estimate D2E/DX2                !
 ! D36   D(8,7,12,11)           -0.129          estimate D2E/DX2                !
 ! D37   D(8,7,12,23)          178.8993         estimate D2E/DX2                !
 ! D38   D(7,8,9,10)             0.0678         estimate D2E/DX2                !
 ! D39   D(7,8,9,21)          -179.6137         estimate D2E/DX2                !
 ! D40   D(20,8,9,10)          179.261          estimate D2E/DX2                !
 ! D41   D(20,8,9,21)           -0.4205         estimate D2E/DX2                !
 ! D42   D(8,9,10,11)           -0.0838         estimate D2E/DX2                !
 ! D43   D(8,9,10,13)         -179.7473         estimate D2E/DX2                !
 ! D44   D(21,9,10,11)         179.5986         estimate D2E/DX2                !
 ! D45   D(21,9,10,13)          -0.065          estimate D2E/DX2                !
 ! D46   D(9,10,11,12)          -0.0063         estimate D2E/DX2                !
 ! D47   D(9,10,11,22)        -179.5101         estimate D2E/DX2                !
 ! D48   D(13,10,11,12)        179.6593         estimate D2E/DX2                !
 ! D49   D(13,10,11,22)          0.1555         estimate D2E/DX2                !
 ! D50   D(9,10,13,24)         179.1496         estimate D2E/DX2                !
 ! D51   D(11,10,13,24)         -0.5029         estimate D2E/DX2                !
 ! D52   D(10,11,12,7)           0.1144         estimate D2E/DX2                !
 ! D53   D(10,11,12,23)       -178.9224         estimate D2E/DX2                !
 ! D54   D(22,11,12,7)         179.6175         estimate D2E/DX2                !
 ! D55   D(22,11,12,23)          0.5807         estimate D2E/DX2                !
 --------------------------------------------------------------------------------
 Trust Radius=3.00D-01 FncErr=1.00D-07 GrdErr=1.00D-06
 Number of steps in this run=    127 maximum allowed number of steps=    144.
 GradGradGradGradGradGradGradGradGradGradGradGradGradGradGradGradGradGrad

                          Input orientation:                          
 ---------------------------------------------------------------------
 Center     Atomic      Atomic             Coordinates (Angstroms)
 Number     Number       Type             X           Y           Z
 ---------------------------------------------------------------------
      1          8           0        1.508337    0.953349    1.878012
      2          6           0        2.003526    1.827263    0.973367
      3          8           0        2.177259    3.007924    1.179968
      4          6           0        2.309784    1.127935   -0.340454
      5          7           0        3.300488    1.917847   -1.089840
      6          6           0        1.041586    0.935286   -1.187895
      7          6           0        0.030180    0.117310   -0.415564
      8          6           0        0.207245   -1.203991   -0.245662
      9          6           0       -0.659025   -1.925980    0.480227
     10          6           0       -1.729723   -1.356954    1.059113
     11          6           0       -1.901963   -0.035773    0.886527
     12          6           0       -1.037969    0.691860    0.163098
     13          8           0       -2.607597   -2.085027    1.800164
     14          1           0        1.312712    0.093645    1.469223
     15          1           0        2.777418    0.138339   -0.118461
     16          1           0        3.255191    1.710173   -2.102281
     17          1           0        3.094762    2.929390   -1.009962
     18          1           0        0.623232    1.929613   -1.468195
     19          1           0        1.288428    0.413977   -2.142422
     20          1           0        1.081267   -1.703378   -0.695532
     21          1           0       -0.488396   -3.007924    0.610370
     22          1           0       -2.767417    0.460991    1.356487
     23          1           0       -1.204574    1.776843    0.059856
     24          1           0       -3.300488   -1.497329    2.142422
 ---------------------------------------------------------------------
                    Distance matrix (angstroms):
                    1          2          3          4          5
     1  O    0.000000
     2  C    1.351784   0.000000
     3  O    2.270683   1.211127   0.000000
     4  C    2.365246   1.519533   2.421488   0.000000
     5  N    3.598640   2.438676   2.757162   1.472085   0.000000
     6  C    3.101285   2.528241   3.345498   1.537399   2.465295
     7  C    2.853840   2.957560   3.938441   2.494714   3.793613
     8  C    3.294988   3.728426   4.863497   3.141263   4.475116
     9  C    3.865462   4.628088   5.733895   4.337481   5.737409
    10  C    4.061173   4.907519   5.859290   4.944803   6.375370
    11  C    3.686672   4.327966   5.098063   4.538558   5.898148
    12  C    3.081068   3.346097   4.090950   3.413382   4.679221
    13  O    5.116513   6.103447   7.015528   6.251880   7.699389
    14  H    0.971838   1.930940   3.053544   2.310593   3.718571
    15  H    2.502142   2.154869   3.206342   1.116809   2.093759
    16  H    4.412144   3.322647   3.690427   2.082506   1.034513
    17  H    3.842119   2.517752   2.375663   2.075975   1.035337
    18  H    3.596332   2.806584   3.254308   2.181501   2.703884
    19  H    4.062410   3.495266   4.307767   2.190889   2.723589
    20  H    3.723401   4.012631   5.187973   3.106713   4.265406
    21  H    4.613626   5.451649   6.604588   5.083228   6.442793
    22  H    4.335490   4.977487   5.564876   5.394663   6.702717
    23  H    3.368044   3.336008   3.769218   3.596115   4.651588
    24  H    5.403752   6.368058   7.157467   6.673218   8.104556
                    6          7          8          9         10
     6  C    0.000000
     7  C    1.512786   0.000000
     8  C    2.482022   1.343895   0.000000
     9  C    3.723111   2.335054   1.341121   0.000000
    10  C    4.240703   2.728623   2.340445   1.343612   0.000000
    11  C    3.729700   2.334963   2.663709   2.298447   1.343492
    12  C    2.491784   1.343838   2.304755   2.664067   2.340728
    13  O    5.600654   4.088717   3.589563   2.358911   1.360114
    14  H    2.800383   2.279884   2.418005   2.990777   3.395414
    15  H    2.189047   2.763337   2.902382   4.053268   4.892535
    16  H    2.517260   3.972773   4.607533   5.933974   6.652146
    17  H    2.867689   4.201519   5.099681   6.315552   6.777129
    18  H    1.114574   2.178115   3.389263   4.506232   4.767096
    19  H    1.115265   2.157137   2.717439   4.018241   4.742917
    20  H    2.684501   2.120866   1.102581   2.112008   3.331734
    21  H    4.596032   3.329947   2.114446   1.103021   2.113756
    22  H    4.605143   3.329389   3.766651   3.303147   2.114276
    23  H    2.703763   2.122426   3.312393   3.766329   3.330913
    24  H    5.988508   4.499300   4.253608   3.150232   1.913261
                   11         12         13         14         15
    11  C    0.000000
    12  C    1.341374   0.000000
    13  O    2.352040   3.585362   0.000000
    14  H    3.269621   2.754909   4.497217   0.000000
    15  H    4.789251   3.865597   6.133748   2.160579   0.000000
    16  H    6.211082   4.959851   8.000306   4.375160   2.575747
    17  H    6.111966   4.843767   8.096795   4.166955   2.947108
    18  H    3.972917   2.636805   6.102275   3.531938   3.109817
    19  H    4.422149   3.287060   6.080133   3.625904   2.527743
    20  H    3.766096   3.311430   4.470109   2.822946   2.569409
    21  H    3.302744   3.767026   2.599685   3.688001   4.593006
    22  H    1.103017   2.113875   2.589324   4.098183   5.746718
    23  H    2.110761   1.102544   4.462195   3.340090   4.309612
    24  H    2.381027   3.718772   0.970890   4.926054   6.687895
                   16         17         18         19         20
    16  H    0.000000
    17  H    1.644806   0.000000
    18  H    2.716142   2.705179   0.000000
    19  H    2.355821   3.297364   1.787238   0.000000
    20  H    4.284532   5.061182   3.742383   2.572858   0.000000
    21  H    6.605555   7.121530   5.471327   4.737549   2.423027
    22  H    7.056581   6.786620   4.651041   5.356720   4.869050
    23  H    4.956691   4.577900   2.387290   3.594787   4.231739
    24  H    8.442896   8.392413   6.338459   6.562860   5.224578
                   21         22         23         24
    21  H    0.000000
    22  H    4.217108   0.000000
    23  H    4.869289   2.419751   0.000000
    24  H    3.540754   2.176436   4.410231   0.000000
 Stoichiometry    C9H11NO3
 Framework group  C1[X(C9H11NO3)]
 Deg. of freedom    66
 Full point group                 C1      NOp   1
 Largest Abelian subgroup         C1      NOp   1
 Largest concise Abelian subgroup C1      NOp   1
                         Standard orientation:                         
 ---------------------------------------------------------------------
 Center     Atomic      Atomic             Coordinates (Angstroms)
 Number     Number       Type             X           Y           Z
 ---------------------------------------------------------------------
      1          8           0       -0.906394    1.375832   -1.041866
      2          6           0       -2.004468    0.974441   -0.363308
      3          8           0       -2.808251    1.721205    0.149629
      4          6           0       -2.092233   -0.542145   -0.328044
      5          7           0       -3.488020   -0.940687   -0.083140
      6          6           0       -1.178126   -1.136720    0.755692
      7          6           0        0.255336   -0.729608    0.494983
      8          6           0        0.953183   -1.291137   -0.506891
      9          6           0        2.207342   -0.899106   -0.775222
     10          6           0        2.807785    0.062995   -0.054719
     11          6           0        2.105740    0.621372    0.945441
     12          6           0        0.850434    0.234685    1.217408
     13          8           0        4.077715    0.466691   -0.327148
     14          1           0       -0.322031    0.626243   -1.244610
     15          1           0       -1.807321   -0.940415   -1.331772
     16          1           0       -3.539540   -1.892027    0.319992
     17          1           0       -3.924391   -0.321832    0.622920
     18          1           0       -1.515983   -0.793633    1.760887
     19          1           0       -1.252607   -2.249492    0.758227
     20          1           0        0.488861   -2.075200   -1.127644
     21          1           0        2.757181   -1.370884   -1.606941
     22          1           0        2.569263    1.419554    1.549345
     23          1           0        0.301294    0.729991    2.035161
     24          1           0        4.326900    1.174027    0.289463
 ---------------------------------------------------------------------
 Rotational constants (GHZ):      1.8385538      0.4688791      0.4301081
 Standard basis: 6-311++G(d,p) (5D, 7F)
 There are   376 symmetry adapted cartesian basis functions of A   symmetry.
 There are   363 symmetry adapted basis functions of A   symmetry.
   363 basis functions,   567 primitive gaussians,   376 cartesian basis functions
    48 alpha electrons       48 beta electrons
       nuclear repulsion energy       803.3141148352 Hartrees.
 NAtoms=   24 NActive=   24 NUniq=   24 SFac= 1.00D+00 NAtFMM=   60 NAOKFM=F Big=F
 Integral buffers will be    131072 words long.
 Raffenetti 2 integral format.
 Two-electron integral symmetry is turned on.
 One-electron integrals computed using PRISM.
 NBasis=   363 RedAO= T EigKep=  1.70D-06  NBF=   363
 NBsUse=   362 1.00D-06 EigRej=  4.71D-07 NBFU=   362
 ExpMin= 3.60D-02 ExpMax= 8.59D+03 ExpMxC= 1.30D+03 IAcc=3 IRadAn=         5 AccDes= 0.00D+00
 Harris functional with IExCor=  402 and IRadAn=       5 diagonalized for initial guess.
 HarFok:  IExCor=  402 AccDes= 0.00D+00 IRadAn=         5 IDoV= 1 UseB2=F ITyADJ=14
 ICtDFT=  3500011 ScaDFX=  1.000000  1.000000  1.000000  1.000000
 FoFCou: FMM=F IPFlag=           0 FMFlag=      100000 FMFlg1=           0
         NFxFlg=           0 DoJE=T BraDBF=F KetDBF=T FulRan=T
         wScrn=  0.000000 ICntrl=     500 IOpCl=  0 I1Cent=   200000004 NGrid=           0
         NMat0=    1 NMatS0=      1 NMatT0=    0 NMatD0=    1 NMtDS0=    0 NMtDT0=    0
 Petite list used in FoFCou.
 Keep R1 ints in memory in canonical form, NReq=2209635337.
 Requested convergence on RMS density matrix=1.00D-08 within 128 cycles.
 Requested convergence on MAX density matrix=1.00D-06.
 Requested convergence on             energy=1.00D-06.
 No special actions if energy rises.
 SCF Done:  E(RB3LYP) =  -630.172379879     A.U. after   15 cycles
            NFock= 15  Conv=0.74D-08     -V/T= 2.0028

 **********************************************************************

            Population analysis using the SCF density.

 **********************************************************************

 Orbital symmetries:
       Occupied  (A) (A) (A) (A) (A) (A) (A) (A) (A) (A) (A) (A)
                 (A) (A) (A) (A) (A) (A) (A) (A) (A) (A) (A) (A)
                 (A) (A) (A) (A) (A) (A) (A) (A) (A) (A) (A) (A)
                 (A) (A) (A) (A) (A) (A) (A) (A) (A) (A) (A) (A)
       Virtual   (A) (A) (A) (A) (A) (A) (A) (A) (A) (A) (A) (A)
                 (A) (A) (A) (A) (A) (A) (A) (A) (A) (A) (A) (A)
                 (A) (A) (A) (A) (A) (A) (A) (A) (A) (A) (A) (A)
                 (A) (A) (A) (A) (A) (A) (A) (A) (A) (A) (A) (A)
                 (A) (A) (A) (A) (A) (A) (A) (A) (A) (A) (A) (A)
                 (A) (A) (A) (A) (A) (A) (A) (A) (A) (A) (A) (A)
                 (A) (A) (A) (A) (A) (A) (A) (A) (A) (A) (A) (A)
                 (A) (A) (A) (A) (A) (A) (A) (A) (A) (A) (A) (A)
                 (A) (A) (A) (A) (A) (A) (A) (A) (A) (A) (A) (A)
                 (A) (A) (A) (A) (A) (A) (A) (A) (A) (A) (A) (A)
                 (A) (A) (A) (A) (A) (A) (A) (A) (A) (A) (A) (A)
                 (A) (A) (A) (A) (A) (A) (A) (A) (A) (A) (A) (A)
                 (A) (A) (A) (A) (A) (A) (A) (A) (A) (A) (A) (A)
                 (A) (A) (A) (A) (A) (A) (A) (A) (A) (A) (A) (A)
                 (A) (A) (A) (A) (A) (A) (A) (A) (A) (A) (A) (A)
                 (A) (A) (A) (A) (A) (A) (A) (A) (A) (A) (A) (A)
                 (A) (A) (A) (A) (A) (A) (A) (A) (A) (A) (A) (A)
                 (A) (A) (A) (A) (A) (A) (A) (A) (A) (A) (A) (A)
                 (A) (A) (A) (A) (A) (A) (A) (A) (A) (A) (A) (A)
                 (A) (A) (A) (A) (A) (A) (A) (A) (A) (A) (A) (A)
                 (A) (A) (A) (A) (A) (A) (A) (A) (A) (A) (A) (A)
                 (A) (A) (A) (A) (A) (A) (A) (A) (A) (A) (A) (A)
                 (A) (A) (A) (A) (A) (A) (A) (A) (A) (A) (A) (A)
                 (A) (A) (A) (A) (A) (A) (A) (A) (A) (A) (A) (A)
                 (A) (A) (A) (A) (A) (A) (A) (A) (A) (A) (A) (A)
                 (A) (A) (A) (A) (A) (A) (A) (A) (A) (A) (A) (A)
                 (A) (A)
 The electronic state is 1-A.
 Alpha  occ. eigenvalues --  -19.17556 -19.17138 -19.12494 -14.30577 -10.31585
 Alpha  occ. eigenvalues --  -10.24474 -10.23335 -10.20301 -10.18976 -10.18731
 Alpha  occ. eigenvalues --  -10.18654 -10.18552 -10.18437  -1.11313  -1.08588
 Alpha  occ. eigenvalues --   -1.03700  -0.91391  -0.89861  -0.80920  -0.78676
 Alpha  occ. eigenvalues --   -0.74154  -0.68002  -0.65416  -0.62664  -0.62065
 Alpha  occ. eigenvalues --   -0.57862  -0.55057  -0.51572  -0.50447  -0.49141
 Alpha  occ. eigenvalues --   -0.47069  -0.46426  -0.46135  -0.44833  -0.44382
 Alpha  occ. eigenvalues --   -0.42825  -0.42249  -0.41440  -0.39024  -0.38494
 Alpha  occ. eigenvalues --   -0.37965  -0.36426  -0.35964  -0.33324  -0.29247
 Alpha  occ. eigenvalues --   -0.28937  -0.26246  -0.24573
 Alpha virt. eigenvalues --   -0.03311  -0.02319  -0.02095  -0.01923  -0.00636
 Alpha virt. eigenvalues --   -0.00139   0.00573   0.01638   0.01984   0.02508
 Alpha virt. eigenvalues --    0.03803   0.04862   0.04975   0.05445   0.06523
 Alpha virt. eigenvalues --    0.07583   0.07852   0.08017   0.08116   0.08998
 Alpha virt. eigenvalues --    0.09190   0.09942   0.10044   0.10399   0.10929
 Alpha virt. eigenvalues --    0.11657   0.11784   0.12167   0.12461   0.12897
 Alpha virt. eigenvalues --    0.13063   0.13732   0.14002   0.14201   0.14723
 Alpha virt. eigenvalues --    0.15319   0.15761   0.16223   0.16299   0.16551
 Alpha virt. eigenvalues --    0.17467   0.18083   0.18335   0.19002   0.19487
 Alpha virt. eigenvalues --    0.19993   0.21296   0.21709   0.21959   0.22146
 Alpha virt. eigenvalues --    0.22607   0.22865   0.23656   0.23787   0.24187
 Alpha virt. eigenvalues --    0.24748   0.25065   0.25876   0.27052   0.27222
 Alpha virt. eigenvalues --    0.27834   0.28433   0.28656   0.29171   0.29547
 Alpha virt. eigenvalues --    0.29863   0.30574   0.30698   0.31176   0.31420
 Alpha virt. eigenvalues --    0.31893   0.32782   0.33185   0.33530   0.34466
 Alpha virt. eigenvalues --    0.34858   0.35154   0.35512   0.36576   0.37720
 Alpha virt. eigenvalues --    0.38267   0.39162   0.39693   0.40427   0.40830
 Alpha virt. eigenvalues --    0.42540   0.45226   0.48128   0.49531   0.51246
 Alpha virt. eigenvalues --    0.51777   0.53159   0.53381   0.54378   0.55746
 Alpha virt. eigenvalues --    0.56448   0.56603   0.57379   0.58361   0.58826
 Alpha virt. eigenvalues --    0.59163   0.59982   0.61505   0.62486   0.63838
 Alpha virt. eigenvalues --    0.65025   0.66774   0.67895   0.67960   0.69145
 Alpha virt. eigenvalues --    0.69460   0.69937   0.70979   0.71459   0.73942
 Alpha virt. eigenvalues --    0.74892   0.75780   0.76622   0.77093   0.78038
 Alpha virt. eigenvalues --    0.78299   0.79399   0.84325   0.84605   0.86696
 Alpha virt. eigenvalues --    0.87207   0.88073   0.88366   0.89757   0.91057
 Alpha virt. eigenvalues --    0.92160   0.92374   0.93295   0.95128   0.97031
 Alpha virt. eigenvalues --    0.98759   1.00924   1.02414   1.03930   1.06291
 Alpha virt. eigenvalues --    1.07289   1.08293   1.09950   1.10418   1.12936
 Alpha virt. eigenvalues --    1.15327   1.16313   1.16751   1.17805   1.19783
 Alpha virt. eigenvalues --    1.20731   1.22156   1.23316   1.24114   1.25205
 Alpha virt. eigenvalues --    1.28609   1.29529   1.30829   1.34985   1.39027
 Alpha virt. eigenvalues --    1.40627   1.41002   1.44715   1.49210   1.50819
 Alpha virt. eigenvalues --    1.52144   1.53074   1.55257   1.55874   1.56701
 Alpha virt. eigenvalues --    1.59063   1.59391   1.59949   1.61041   1.62014
 Alpha virt. eigenvalues --    1.63369   1.65537   1.65998   1.66562   1.67759
 Alpha virt. eigenvalues --    1.68588   1.70266   1.71965   1.72587   1.74178
 Alpha virt. eigenvalues --    1.75480   1.76536   1.78481   1.80902   1.82712
 Alpha virt. eigenvalues --    1.83361   1.85216   1.86571   1.89815   1.90297
 Alpha virt. eigenvalues --    1.93235   1.93954   1.94801   1.96903   1.97788
 Alpha virt. eigenvalues --    1.99221   2.00306   2.01939   2.03784   2.04691
 Alpha virt. eigenvalues --    2.06344   2.08487   2.10291   2.11121   2.13001
 Alpha virt. eigenvalues --    2.13739   2.19803   2.22044   2.23779   2.27338
 Alpha virt. eigenvalues --    2.30312   2.35888   2.37478   2.39258   2.42910
 Alpha virt. eigenvalues --    2.44193   2.46558   2.50321   2.52721   2.56695
 Alpha virt. eigenvalues --    2.58946   2.60336   2.63114   2.64752   2.66065
 Alpha virt. eigenvalues --    2.67485   2.69703   2.70245   2.71769   2.72451
 Alpha virt. eigenvalues --    2.74158   2.75335   2.77441   2.78165   2.79170
 Alpha virt. eigenvalues --    2.81434   2.83087   2.84138   2.85545   2.87856
 Alpha virt. eigenvalues --    2.88477   2.90450   2.93037   2.94654   2.96093
 Alpha virt. eigenvalues --    2.98047   3.01318   3.02454   3.02859   3.08051
 Alpha virt. eigenvalues --    3.08229   3.08881   3.11835   3.13192   3.17415
 Alpha virt. eigenvalues --    3.19881   3.20255   3.22540   3.29291   3.32999
 Alpha virt. eigenvalues --    3.35355   3.37124   3.43202   3.48200   3.51830
 Alpha virt. eigenvalues --    3.53670   3.54815   3.58117   3.65937   3.67318
 Alpha virt. eigenvalues --    3.72276   3.78550   3.80296   3.88896   3.90911
 Alpha virt. eigenvalues --    3.96598   4.05003   4.08065   4.11530   4.12743
 Alpha virt. eigenvalues --    4.12975   4.16077   4.22654   4.33507   4.67902
 Alpha virt. eigenvalues --    4.82811   4.90528   4.99671   5.05246   5.08732
 Alpha virt. eigenvalues --    5.16613   5.39188   5.42597   5.59244   5.76089
 Alpha virt. eigenvalues --    5.88671  23.55655  23.79205  23.81551  23.88956
 Alpha virt. eigenvalues --   24.04172  24.04821  24.24267  24.26802  24.38581
 Alpha virt. eigenvalues --   35.57700  49.88902  49.93335  50.00859
          Condensed to atoms (all electrons):
               1          2          3          4          5          6
     1  O    7.898873   0.049650  -0.105885   0.197834  -0.038932  -0.131842
     2  C    0.049650   7.057075   0.437032  -1.994384   0.055124   0.733331
     3  O   -0.105885   0.437032   7.977351   0.056732  -0.064090  -0.094044
     4  C    0.197834  -1.994384   0.056732  11.520700  -0.506612  -3.647472
     5  N   -0.038932   0.055124  -0.064090  -0.506612   6.901353   0.273206
     6  C   -0.131842   0.733331  -0.094044  -3.647472   0.273206  13.920133
     7  C   -0.175787   0.464249   0.075315  -0.853150  -0.039687  -3.454076
     8  C    0.107963  -0.309243  -0.006537  -0.086420   0.209589  -0.144453
     9  C    0.015088   0.010734  -0.002261   0.060871   0.038614  -0.155680
    10  C   -0.002259   0.031233   0.000998   0.024170  -0.004053  -0.192844
    11  C    0.005756  -0.157833  -0.000160   0.428364   0.017816  -0.205228
    12  C   -0.020221   0.090161  -0.031118   0.776410  -0.184811  -1.624308
    13  O   -0.000003   0.001766  -0.000009  -0.001096   0.000008  -0.007423
    14  H    0.233754  -0.007295   0.022801  -0.034876   0.000492  -0.000495
    15  H    0.051815  -0.378169  -0.018649   0.731788  -0.048606   0.056352
    16  H    0.000031   0.008171   0.003950   0.018639   0.345561  -0.081333
    17  H    0.005597  -0.020452   0.011774  -0.026812   0.378690   0.064152
    18  H    0.004582  -0.078436   0.006753   0.058741  -0.028280   0.505350
    19  H   -0.011380   0.066885  -0.002779  -0.202392  -0.023747   0.424322
    20  H    0.000445   0.003281   0.000810   0.015351  -0.004174  -0.004615
    21  H   -0.000045   0.001456  -0.000090  -0.000658   0.000498   0.007718
    22  H    0.000234  -0.002365   0.000131   0.001064   0.000891   0.030998
    23  H    0.004210  -0.011862  -0.004860   0.038558  -0.005132  -0.098686
    24  H   -0.000133   0.000815   0.000000  -0.000078  -0.000016  -0.002708
               7          8          9         10         11         12
     1  O   -0.175787   0.107963   0.015088  -0.002259   0.005756  -0.020221
     2  C    0.464249  -0.309243   0.010734   0.031233  -0.157833   0.090161
     3  O    0.075315  -0.006537  -0.002261   0.000998  -0.000160  -0.031118
     4  C   -0.853150  -0.086420   0.060871   0.024170   0.428364   0.776410
     5  N   -0.039687   0.209589   0.038614  -0.004053   0.017816  -0.184811
     6  C   -3.454076  -0.144453  -0.155680  -0.192844  -0.205228  -1.624308
     7  C   17.891051  -0.900499  -3.144642   0.553803  -2.084976  -2.277278
     8  C   -0.900499  14.856133  -1.264692  -0.424212   3.045649  -9.174881
     9  C   -3.144642  -1.264692  11.051524  -0.754457  -2.755189   2.934435
    10  C    0.553803  -0.424212  -0.754457   8.771915  -1.044231  -0.701672
    11  C   -2.084976   3.045649  -2.755189  -1.044231  11.412050  -2.909958
    12  C   -2.277278  -9.174881   2.934435  -0.701672  -2.909958  18.833895
    13  O    0.008388   0.040997  -0.462379   0.413067   0.100079  -0.067158
    14  H    0.042653  -0.072527  -0.018853   0.006355   0.002610   0.081446
    15  H   -0.575908   0.343425   0.097213  -0.020493   0.071703  -0.193167
    16  H   -0.003447   0.008877   0.003851  -0.000350   0.004111   0.011108
    17  H   -0.035176  -0.005352   0.001807  -0.001077  -0.003553  -0.001986
    18  H   -0.112781   0.009992  -0.059589  -0.011170   0.035998  -0.012711
    19  H    0.167944  -0.121688  -0.001073   0.001484  -0.061054   0.071389
    20  H    0.111946   0.425363  -0.300004   0.025838   0.076645  -0.034404
    21  H   -0.030826  -0.155457   0.720117  -0.165481  -0.154939   0.093370
    22  H    0.031195   0.031076  -0.074816  -0.282371   0.582855  -0.012379
    23  H   -0.139528  -0.164426   0.112536   0.112862  -0.160813   0.616536
    24  H    0.004218  -0.000338   0.116647   0.067688  -0.179909   0.002412
              13         14         15         16         17         18
     1  O   -0.000003   0.233754   0.051815   0.000031   0.005597   0.004582
     2  C    0.001766  -0.007295  -0.378169   0.008171  -0.020452  -0.078436
     3  O   -0.000009   0.022801  -0.018649   0.003950   0.011774   0.006753
     4  C   -0.001096  -0.034876   0.731788   0.018639  -0.026812   0.058741
     5  N    0.000008   0.000492  -0.048606   0.345561   0.378690  -0.028280
     6  C   -0.007423  -0.000495   0.056352  -0.081333   0.064152   0.505350
     7  C    0.008388   0.042653  -0.575908  -0.003447  -0.035176  -0.112781
     8  C    0.040997  -0.072527   0.343425   0.008877  -0.005352   0.009992
     9  C   -0.462379  -0.018853   0.097213   0.003851   0.001807  -0.059589
    10  C    0.413067   0.006355  -0.020493  -0.000350  -0.001077  -0.011170
    11  C    0.100079   0.002610   0.071703   0.004111  -0.003553   0.035998
    12  C   -0.067158   0.081446  -0.193167   0.011108  -0.001986  -0.012711
    13  O    8.027719  -0.001065  -0.000055  -0.000003   0.000010  -0.000173
    14  H   -0.001065   0.478885  -0.040649   0.000443   0.000240   0.000421
    15  H   -0.000055  -0.040649   0.754417   0.000751   0.005665   0.007927
    16  H   -0.000003   0.000443   0.000751   0.519897  -0.054676  -0.005178
    17  H    0.000010   0.000240   0.005665  -0.054676   0.416827   0.000082
    18  H   -0.000173   0.000421   0.007927  -0.005178   0.000082   0.521760
    19  H   -0.000404   0.005956  -0.043839   0.004294   0.001220  -0.036211
    20  H    0.001356   0.000729  -0.026626  -0.000731  -0.000522   0.006240
    21  H   -0.032669  -0.000114   0.003076   0.000070   0.000048  -0.000845
    22  H   -0.018833  -0.000160   0.001490   0.000066  -0.000050   0.002292
    23  H   -0.001699   0.001804  -0.004782   0.000914   0.000096  -0.012322
    24  H    0.244162  -0.000259   0.000071  -0.000001   0.000000  -0.000041
              19         20         21         22         23         24
     1  O   -0.011380   0.000445  -0.000045   0.000234   0.004210  -0.000133
     2  C    0.066885   0.003281   0.001456  -0.002365  -0.011862   0.000815
     3  O   -0.002779   0.000810  -0.000090   0.000131  -0.004860   0.000000
     4  C   -0.202392   0.015351  -0.000658   0.001064   0.038558  -0.000078
     5  N   -0.023747  -0.004174   0.000498   0.000891  -0.005132  -0.000016
     6  C    0.424322  -0.004615   0.007718   0.030998  -0.098686  -0.002708
     7  C    0.167944   0.111946  -0.030826   0.031195  -0.139528   0.004218
     8  C   -0.121688   0.425363  -0.155457   0.031076  -0.164426  -0.000338
     9  C   -0.001073  -0.300004   0.720117  -0.074816   0.112536   0.116647
    10  C    0.001484   0.025838  -0.165481  -0.282371   0.112862   0.067688
    11  C   -0.061054   0.076645  -0.154939   0.582855  -0.160813  -0.179909
    12  C    0.071389  -0.034404   0.093370  -0.012379   0.616536   0.002412
    13  O   -0.000404   0.001356  -0.032669  -0.018833  -0.001699   0.244162
    14  H    0.005956   0.000729  -0.000114  -0.000160   0.001804  -0.000259
    15  H   -0.043839  -0.026626   0.003076   0.001490  -0.004782   0.000071
    16  H    0.004294  -0.000731   0.000070   0.000066   0.000914  -0.000001
    17  H    0.001220  -0.000522   0.000048  -0.000050   0.000096   0.000000
    18  H   -0.036211   0.006240  -0.000845   0.002292  -0.012322  -0.000041
    19  H    0.575204  -0.004827   0.000936  -0.000452   0.005687  -0.000042
    20  H   -0.004827   0.572498  -0.033602   0.002498  -0.005926  -0.000613
    21  H    0.000936  -0.033602   0.541352  -0.002601   0.003449   0.003904
    22  H   -0.000452   0.002498  -0.002601   0.598097  -0.030302  -0.001100
    23  H    0.005687  -0.005926   0.003449  -0.030302   0.563142   0.001172
    24  H   -0.000042  -0.000613   0.003904  -0.001100   0.001172   0.479868
 Mulliken charges:
               1
     1  O   -0.089345
     2  C   -0.050922
     3  O   -0.263164
     4  C   -0.575272
     5  N   -0.273704
     6  C   -0.170356
     7  C    0.477002
     8  C   -0.248338
     9  C   -0.169803
    10  C   -0.404742
    11  C   -0.065793
    12  C   -0.265110
    13  O   -0.244583
    14  H    0.297703
    15  H    0.225252
    16  H    0.214985
    17  H    0.263449
    18  H    0.197600
    19  H    0.184567
    20  H    0.173045
    21  H    0.201332
    22  H    0.142544
    23  H    0.179373
    24  H    0.264281
 Sum of Mulliken charges =   0.00000
 Mulliken charges with hydrogens summed into heavy atoms:
               1
     1  O    0.208358
     2  C   -0.050922
     3  O   -0.263164
     4  C   -0.350021
     5  N    0.204730
     6  C    0.211811
     7  C    0.477002
     8  C   -0.075293
     9  C    0.031529
    10  C   -0.404742
    11  C    0.076751
    12  C   -0.085737
    13  O    0.019698
 Electronic spatial extent (au):  <R**2>=           2626.2250
 Charge=              0.0000 electrons
 Dipole moment (field-independent basis, Debye):
    X=              3.0628    Y=             -2.8076    Z=              1.7818  Tot=              4.5208
 Quadrupole moment (field-independent basis, Debye-Ang):
   XX=            -87.2828   YY=            -79.2161   ZZ=            -74.4307
   XY=             13.9936   XZ=             -0.4733   YZ=              3.6980
 Traceless Quadrupole moment (field-independent basis, Debye-Ang):
   XX=             -6.9730   YY=              1.0938   ZZ=              5.8792
   XY=             13.9936   XZ=             -0.4733   YZ=              3.6980
 Octapole moment (field-independent basis, Debye-Ang**2):
  XXX=             44.0020  YYY=             -8.8519  ZZZ=             -3.5566  XYY=             19.0192
  XXY=              9.0451  XXZ=             39.5996  XZZ=             -0.2097  YZZ=              3.2954
  YYZ=              1.7563  XYZ=             17.3399
 Hexadecapole moment (field-independent basis, Debye-Ang**3):
 XXXX=          -2679.3931 YYYY=           -565.5547 ZZZZ=           -330.0586 XXXY=            153.5313
 XXXZ=              1.6689 YYYX=             67.6151 YYYZ=              5.6313 ZZZX=            -11.4794
 ZZZY=              9.5932 XXYY=           -493.4816 XXZZ=           -475.6818 YYZZ=           -146.2028
 XXYZ=              5.5242 YYXZ=             -3.3983 ZZXY=             -1.9080
 N-N= 8.033141148352D+02 E-N=-3.079068407113D+03  KE= 6.283828732597D+02

 **********************************************************************

            Electrostatic Properties Using The SCF Density

 **********************************************************************

       Atomic Center    1 is at  -0.906394  1.375832 -1.041866
       Atomic Center    2 is at  -2.004468  0.974441 -0.363308
       Atomic Center    3 is at  -2.808251  1.721205  0.149629
       Atomic Center    4 is at  -2.092233 -0.542145 -0.328044
       Atomic Center    5 is at  -3.488020 -0.940687 -0.083140
       Atomic Center    6 is at  -1.178126 -1.136720  0.755692
       Atomic Center    7 is at   0.255336 -0.729608  0.494983
       Atomic Center    8 is at   0.953183 -1.291137 -0.506891
       Atomic Center    9 is at   2.207342 -0.899106 -0.775222
       Atomic Center   10 is at   2.807785  0.062995 -0.054719
       Atomic Center   11 is at   2.105740  0.621372  0.945441
       Atomic Center   12 is at   0.850434  0.234685  1.217408
       Atomic Center   13 is at   4.077715  0.466691 -0.327148
       Atomic Center   14 is at  -0.322031  0.626243 -1.244610
       Atomic Center   15 is at  -1.807321 -0.940415 -1.331772
       Atomic Center   16 is at  -3.539540 -1.892027  0.319992
       Atomic Center   17 is at  -3.924391 -0.321832  0.622920
       Atomic Center   18 is at  -1.515983 -0.793633  1.760887
       Atomic Center   19 is at  -1.252607 -2.249492  0.758227
       Atomic Center   20 is at   0.488861 -2.075200 -1.127644
       Atomic Center   21 is at   2.757181 -1.370884 -1.606941
       Atomic Center   22 is at   2.569263  1.419554  1.549345
       Atomic Center   23 is at   0.301294  0.729991  2.035161
       Atomic Center   24 is at   4.326900  1.174027  0.289463
 -----------------------------------------------------------------

              Electrostatic Properties (Atomic Units)

 -----------------------------------------------------------------
    Center     Electric         -------- Electric Field --------
               Potential          X             Y             Z
 -----------------------------------------------------------------
    1 Atom    -22.320307      0.009462      0.045636     -0.011428
    2 Atom    -14.634974     -0.004211     -0.013957      0.001678
    3 Atom    -22.375224     -0.032420      0.032102      0.019900
    4 Atom    -14.712137     -0.001191     -0.003564      0.000637
    5 Atom    -18.407346     -0.019736      0.002337     -0.028304
    6 Atom    -14.743256      0.000887     -0.000118      0.001067
    7 Atom    -14.766353     -0.010993     -0.004997      0.005269
    8 Atom    -14.764312     -0.004127     -0.008791     -0.005498
    9 Atom    -14.769338      0.007884     -0.007003     -0.011674
   10 Atom    -14.707547     -0.003260     -0.000329      0.001772
   11 Atom    -14.768474      0.003994      0.008610      0.007581
   12 Atom    -14.767588     -0.005527      0.004848      0.009522
   13 Atom    -22.322516      0.031826     -0.016381     -0.035147
   14 Atom     -0.951267      0.011468     -0.014403     -0.005250
   15 Atom     -1.090632      0.002744     -0.001421     -0.003837
   16 Atom     -1.053882      0.001584     -0.005061     -0.001230
   17 Atom     -1.057618     -0.001284      0.007124      0.000495
   18 Atom     -1.094659     -0.001823      0.002842      0.003020
   19 Atom     -1.091791     -0.003436     -0.004225     -0.002686
   20 Atom     -1.083981     -0.001979     -0.007111     -0.003981
   21 Atom     -1.089125      0.005088     -0.002534     -0.005039
   22 Atom     -1.079480      0.003030      0.006416      0.005262
   23 Atom     -1.090046     -0.003599      0.002975      0.005687
   24 Atom     -0.958020      0.006545      0.012269      0.009406
 -----------------------------------------------------------------
 -----------------------------------------------------
    Center         ---- Electric Field Gradient ----
                     XX            YY            ZZ
 -----------------------------------------------------
    1 Atom    -1237.771694  -1236.576690  -1236.400325
    2 Atom     -501.309275   -500.886280   -501.513863
    3 Atom    -1238.239277  -1237.266211  -1238.797482
    4 Atom     -500.568243   -500.412207   -500.363270
    5 Atom     -813.171075   -813.437280   -812.295033
    6 Atom     -500.440155   -500.416450   -500.440724
    7 Atom     -500.891899   -500.938220   -500.912291
    8 Atom     -500.878916   -501.119968   -501.029725
    9 Atom     -500.823000   -501.001749   -500.998855
   10 Atom     -501.182448   -500.887229   -500.809906
   11 Atom     -500.839656   -501.075147   -501.020084
   12 Atom     -500.926468   -501.110205   -501.122513
   13 Atom    -1237.265094  -1236.441119  -1235.904457
   14 Atom       -1.726287     -1.873484     -1.509271
   15 Atom       -1.721864     -1.743436     -1.997160
   16 Atom       -1.620914     -2.059698     -1.661415
   17 Atom       -1.674895     -1.774240     -1.799336
   18 Atom       -1.707699     -1.706566     -1.987505
   19 Atom       -1.675418     -2.062599     -1.667362
   20 Atom       -1.751440     -1.878779     -1.801170
   21 Atom       -1.760265     -1.727176     -1.888976
   22 Atom       -1.751085     -1.878606     -1.787562
   23 Atom       -1.776817     -1.746989     -1.894744
   24 Atom       -1.587717     -1.855797     -1.772893
 -----------------------------------------------------
 -----------------------------------------------------
    Center         ---- Electric Field Gradient ----
                     XY            XZ            YZ
 -----------------------------------------------------
    1 Atom        0.577287      1.060799     -0.073194
    2 Atom       -0.107834     -0.191168      0.080680
    3 Atom        0.949535     -0.421932     -0.523622
    4 Atom       -0.070281      0.013031      0.013863
    5 Atom       -0.123755      0.769621      0.000387
    6 Atom        0.002288     -0.011314      0.057339
    7 Atom        0.067701     -0.072038      0.225597
    8 Atom        0.085979     -0.155775      0.173325
    9 Atom        0.127536     -0.073761      0.143072
   10 Atom       -0.023213     -0.017820      0.319353
   11 Atom        0.064579     -0.129707      0.108755
   12 Atom        0.160054     -0.071980      0.197477
   13 Atom       -1.227525     -0.025397     -0.913152
   14 Atom        0.282921      0.103037     -0.095560
   15 Atom        0.030602      0.095222     -0.121545
   16 Atom       -0.013213      0.032998      0.187338
   17 Atom        0.115006      0.170418     -0.209609
   18 Atom        0.036580      0.105765     -0.111940
   19 Atom       -0.029117     -0.001215     -0.003725
   20 Atom       -0.129626     -0.094209     -0.176401
   21 Atom        0.082983      0.159794     -0.144707
   22 Atom       -0.135775     -0.087859     -0.176265
   23 Atom        0.086284      0.157837     -0.147692
   24 Atom       -0.139130     -0.093494     -0.314940
 -----------------------------------------------------
 -----------------------------------------------------
    Center         ---- Electric Field Gradient ----
                   ----       Eigenvalues       ----
 -----------------------------------------------------
    1 Atom    -1238.502979  -1236.486500  -1235.759231
    2 Atom     -501.628656   -501.244750   -500.836011
    3 Atom    -1239.024498  -1238.785846  -1236.492626
    4 Atom     -500.596491   -500.387851   -500.359378
    5 Atom     -813.668688   -813.389599   -811.845101
    6 Atom     -500.489335   -500.438427   -500.369567
    7 Atom     -501.184513   -500.858814   -500.699083
    8 Atom     -501.316574   -500.932362   -500.779674
    9 Atom     -501.198130   -500.868837   -500.756638
   10 Atom     -501.185698   -501.168260   -500.525626
   11 Atom     -501.208014   -500.955184   -500.771689
   12 Atom     -501.374536   -500.958232   -500.826418
   13 Atom    -1238.287950  -1236.376456  -1234.946264
   14 Atom       -2.123549     -1.519654     -1.465838
   15 Atom       -2.074245     -1.700956     -1.687259
   16 Atom       -2.135131     -1.633948     -1.572948
   17 Atom       -2.095220     -1.606447     -1.546805
   18 Atom       -2.062002     -1.672378     -1.667391
   19 Atom       -2.064813     -1.673384     -1.667181
   20 Atom       -2.095154     -1.679392     -1.656843
   21 Atom       -2.076254     -1.661327     -1.638837
   22 Atom       -2.091506     -1.680045     -1.645702
   23 Atom       -2.089324     -1.676806     -1.652420
   24 Atom       -2.178813     -1.549081     -1.488514
 -----------------------------------------------------
 -----------------------------------------------------
    Center         ---- Electric Field Gradient ----
                       ( tensor representation )
                   3XX-RR        3YY-RR        3ZZ-RR
 -----------------------------------------------------
    1 Atom       -0.855458      0.339546      0.515911
    2 Atom       -0.072803      0.350193     -0.277390
    3 Atom       -0.138287      0.834779     -0.696492
    4 Atom       -0.120336      0.035699      0.084637
    5 Atom       -0.203279     -0.469484      0.672763
    6 Atom       -0.007712      0.015993     -0.008281
    7 Atom        0.022238     -0.024084      0.001846
    8 Atom        0.130620     -0.110432     -0.020188
    9 Atom        0.118201     -0.060548     -0.057654
   10 Atom       -0.222587      0.072632      0.149955
   11 Atom        0.138640     -0.096852     -0.041788
   12 Atom        0.126594     -0.057143     -0.069451
   13 Atom       -0.728204      0.095771      0.632433
   14 Atom       -0.023273     -0.170470      0.193743
   15 Atom        0.098956      0.077384     -0.176340
   16 Atom        0.159762     -0.279022      0.119261
   17 Atom        0.074596     -0.024750     -0.049845
   18 Atom        0.092891      0.094024     -0.186915
   19 Atom        0.126375     -0.260806      0.134431
   20 Atom        0.059023     -0.068316      0.009293
   21 Atom        0.031874      0.064963     -0.096837
   22 Atom        0.054666     -0.072855      0.018189
   23 Atom        0.029366      0.059194     -0.088560
   24 Atom        0.151085     -0.116995     -0.034091
 -----------------------------------------------------
 -----------------------------------------------------
    Center         ---- Electric Field Gradient ----
                       ( tensor representation )
                   ----       Eigenvalues       ----
 -----------------------------------------------------
    1 Atom       -1.586743      0.429737      1.157006
    2 Atom       -0.392184     -0.008277      0.400461
    3 Atom       -0.923508     -0.684856      1.608364
    4 Atom       -0.148584      0.060056      0.088529
    5 Atom       -0.700892     -0.421803      1.122695
    6 Atom       -0.056892     -0.005984      0.062876
    7 Atom       -0.270376      0.055322      0.215054
    8 Atom       -0.307037      0.077174      0.229863
    9 Atom       -0.256929      0.072365      0.184564
   10 Atom       -0.225837     -0.208399      0.434235
   11 Atom       -0.229718      0.023112      0.206607
   12 Atom       -0.321474      0.094830      0.226644
   13 Atom       -1.751060      0.160434      1.590626
   14 Atom       -0.420536      0.183359      0.237176
   15 Atom       -0.253425      0.119864      0.133561
   16 Atom       -0.354455      0.146728      0.207728
   17 Atom       -0.345729      0.143043      0.202686
   18 Atom       -0.261411      0.128212      0.133199
   19 Atom       -0.263020      0.128409      0.134612
   20 Atom       -0.284691      0.131071      0.153620
   21 Atom       -0.284114      0.130812      0.153302
   22 Atom       -0.285755      0.125706      0.160049
   23 Atom       -0.283140      0.129377      0.153763
   24 Atom       -0.440010      0.189722      0.250289
 -----------------------------------------------------
 Calling FoFJK, ICntrl=      2127 FMM=F ISym2X=0 I1Cent= 0 IOpClX= 0 NMat=1 NMatS=1 NMatT=0.
 ***** Axes restored to original set *****
 -------------------------------------------------------------------
 Center     Atomic                   Forces (Hartrees/Bohr)
 Number     Number              X              Y              Z
 -------------------------------------------------------------------
      1        8           0.000033500    0.013039158    0.015162751
      2        6           0.003497679    0.000349548   -0.003255943
      3        8          -0.006559555   -0.021816006    0.003286414
      4        6           0.024657444    0.009806897   -0.027776091
      5        7           0.001709760    0.012851381   -0.011883762
      6        6          -0.014054912   -0.003896292   -0.004146893
      7        6           0.029217716    0.033982916   -0.041076753
      8        6           0.046920500   -0.029899855   -0.023858943
      9        6           0.009938352   -0.078816600    0.011796653
     10        6          -0.030349585   -0.014091212    0.023012252
     11        6          -0.051975172    0.034941416    0.026159007
     12        6          -0.014647413    0.060800076   -0.005806271
     13        8          -0.006334487   -0.006489013    0.005413230
     14        1           0.002832482    0.004950903    0.001567239
     15        1          -0.007469529    0.010262655   -0.001582398
     16        1           0.000634942   -0.000649303    0.015910673
     17        1           0.002731844   -0.014777946    0.004097855
     18        1           0.005486481   -0.010775921    0.005047096
     19        1           0.001559688    0.006116644    0.011581832
     20        1          -0.008877162    0.003408952    0.002956888
     21        1          -0.003158670    0.010294272   -0.000646093
     22        1           0.007071583   -0.003629641   -0.003926938
     23        1           0.001465389   -0.010420471    0.000555335
     24        1           0.005669126   -0.005542560   -0.002587139
 -------------------------------------------------------------------
 Cartesian Forces:  Max     0.078816600 RMS     0.019932546

 GradGradGradGradGradGradGradGradGradGradGradGradGradGradGradGradGradGrad
 Berny optimization.
 FormGI is forming the generalized inverse of G from B-inverse, IUseBI=4.
 Internal  Forces:  Max     0.062928508 RMS     0.015256862
 Search for a local minimum.
 Step number   1 out of a maximum of  127
 All quantities printed in internal units (Hartrees-Bohrs-Radians)
 Mixed Optimization -- RFO/linear search
 Second derivative matrix not updated -- first step.
 ITU=  0
     Eigenvalues ---    0.00271   0.00508   0.00597   0.00738   0.00964
     Eigenvalues ---    0.01916   0.02219   0.02330   0.02721   0.02833
     Eigenvalues ---    0.02842   0.02844   0.02850   0.02850   0.02854
     Eigenvalues ---    0.02856   0.04187   0.04309   0.04550   0.04976
     Eigenvalues ---    0.05410   0.06584   0.08923   0.12534   0.15998
     Eigenvalues ---    0.15999   0.16000   0.16000   0.16000   0.16000
     Eigenvalues ---    0.16000   0.16000   0.17366   0.18167   0.21868
     Eigenvalues ---    0.22000   0.22961   0.23994   0.24973   0.25000
     Eigenvalues ---    0.25000   0.25000   0.28751   0.30412   0.31072
     Eigenvalues ---    0.31890   0.32049   0.32121   0.33350   0.33351
     Eigenvalues ---    0.33398   0.33402   0.35492   0.41979   0.42101
     Eigenvalues ---    0.49935   0.50487   0.52925   0.53003   0.53196
     Eigenvalues ---    0.54644   0.56377   0.56383   0.56583   0.56927
     Eigenvalues ---    0.99425
 RFO step:  Lambda=-5.54555378D-02 EMin= 2.71228783D-03
 Linear search not attempted -- first point.
 Maximum step size (   0.300) exceeded in Quadratic search.
    -- Step size scaled by   0.864
 Iteration  1 RMS(Cart)=  0.15632056 RMS(Int)=  0.00494719
 Iteration  2 RMS(Cart)=  0.00926743 RMS(Int)=  0.00029946
 Iteration  3 RMS(Cart)=  0.00006111 RMS(Int)=  0.00029802
 Iteration  4 RMS(Cart)=  0.00000001 RMS(Int)=  0.00029802
 Variable       Old X    -DE/DX   Delta X   Delta X   Delta X     New X
                                 (Linear)    (Quad)   (Total)
    R1        2.55450  -0.00148   0.00000  -0.00213  -0.00213   2.55237
    R2        1.83651  -0.00561   0.00000  -0.00828  -0.00828   1.82823
    R3        2.28870  -0.02165   0.00000  -0.01781  -0.01781   2.27089
    R4        2.87150   0.01294   0.00000   0.03109   0.03109   2.90259
    R5        2.78184  -0.00210   0.00000  -0.00443  -0.00443   2.77741
    R6        2.90526   0.01751   0.00000   0.04409   0.04409   2.94935
    R7        2.11046  -0.01253   0.00000  -0.02892  -0.02892   2.08154
    R8        1.95495  -0.01547   0.00000  -0.02805  -0.02805   1.92690
    R9        1.95650  -0.01467   0.00000  -0.02666  -0.02666   1.92984
   R10        2.85875   0.00893   0.00000   0.02106   0.02106   2.87981
   R11        2.10624  -0.01295   0.00000  -0.02969  -0.02969   2.07655
   R12        2.10755  -0.01242   0.00000  -0.02855  -0.02855   2.07900
   R13        2.53959   0.06293   0.00000   0.08800   0.08802   2.62761
   R14        2.53949   0.05943   0.00000   0.08305   0.08306   2.62254
   R15        2.53435   0.05658   0.00000   0.07824   0.07824   2.61260
   R16        2.08358  -0.00979   0.00000  -0.02171  -0.02171   2.06187
   R17        2.53906   0.05355   0.00000   0.07455   0.07454   2.61360
   R18        2.08441  -0.01066   0.00000  -0.02368  -0.02368   2.06073
   R19        2.53883   0.06001   0.00000   0.08347   0.08346   2.62229
   R20        2.57024   0.00841   0.00000   0.01242   0.01242   2.58266
   R21        2.53483   0.05422   0.00000   0.07495   0.07495   2.60978
   R22        2.08440  -0.00886   0.00000  -0.01967  -0.01967   2.06473
   R23        2.08351  -0.01053   0.00000  -0.02335  -0.02335   2.06016
   R24        1.83472  -0.00831   0.00000  -0.01222  -0.01222   1.82250
    A1        1.94350  -0.00226   0.00000  -0.00905  -0.00905   1.93445
    A2        2.17562  -0.02581   0.00000  -0.07297  -0.07307   2.10255
    A3        1.93363   0.03384   0.00000   0.09572   0.09561   2.02924
    A4        2.17393  -0.00803   0.00000  -0.02269  -0.02280   2.15113
    A5        1.90586  -0.00955   0.00000  -0.03328  -0.03388   1.87199
    A6        1.94766   0.00631   0.00000   0.02848   0.02870   1.97636
    A7        1.89687   0.00052   0.00000  -0.00334  -0.00359   1.89329
    A8        1.91961   0.00685   0.00000   0.02942   0.02965   1.94926
    A9        1.87011  -0.00028   0.00000  -0.00908  -0.00924   1.86087
   A10        1.92190  -0.00426   0.00000  -0.01433  -0.01420   1.90770
   A11        1.94015  -0.00277   0.00000  -0.00888  -0.00889   1.93127
   A12        1.92971  -0.00395   0.00000  -0.01360  -0.01360   1.91611
   A13        1.83686   0.00472   0.00000   0.02338   0.02337   1.86024
   A14        1.91542   0.03523   0.00000   0.11541   0.11570   2.03112
   A15        1.91395  -0.01020   0.00000  -0.02858  -0.02973   1.88422
   A16        1.92599  -0.01364   0.00000  -0.05205  -0.05216   1.87383
   A17        1.93887  -0.00962   0.00000  -0.01977  -0.02015   1.91872
   A18        1.90942  -0.00933   0.00000  -0.02520  -0.02395   1.88546
   A19        1.85963   0.00615   0.00000   0.00517   0.00359   1.86323
   A20        2.10374   0.00099   0.00000   0.00255   0.00251   2.10626
   A21        2.11774   0.00176   0.00000   0.00473   0.00469   2.12242
   A22        2.06082  -0.00271   0.00000  -0.00676  -0.00675   2.05406
   A23        2.10903   0.00347   0.00000   0.01153   0.01155   2.12058
   A24        2.09228  -0.00086   0.00000  -0.00224  -0.00226   2.09002
   A25        2.08179  -0.00260   0.00000  -0.00920  -0.00922   2.07257
   A26        2.11757  -0.00567   0.00000  -0.01775  -0.01776   2.09981
   A27        2.08518   0.00451   0.00000   0.01559   0.01559   2.10077
   A28        2.08042   0.00116   0.00000   0.00219   0.00218   2.08260
   A29        2.05250   0.00673   0.00000   0.01861   0.01859   2.07109
   A30        2.12043  -0.01562   0.00000  -0.04396  -0.04395   2.07648
   A31        2.11024   0.00890   0.00000   0.02537   0.02538   2.13561
   A32        2.11782  -0.00297   0.00000  -0.00961  -0.00962   2.10820
   A33        2.08145   0.00192   0.00000   0.00655   0.00655   2.08800
   A34        2.08388   0.00105   0.00000   0.00307   0.00308   2.08696
   A35        2.10864   0.00116   0.00000   0.00397   0.00398   2.11262
   A36        2.09500  -0.00072   0.00000  -0.00255  -0.00256   2.09244
   A37        2.07943  -0.00043   0.00000  -0.00139  -0.00140   2.07803
   A38        1.90569   0.00122   0.00000   0.00488   0.00488   1.91057
    D1        2.97833   0.00225   0.00000   0.02697   0.02664   3.00498
    D2       -0.16076   0.00017   0.00000  -0.00043  -0.00011  -0.16086
    D3       -2.75397   0.00717   0.00000   0.06768   0.06754  -2.68643
    D4        1.40331   0.00092   0.00000   0.03466   0.03496   1.43826
    D5       -0.71939   0.00185   0.00000   0.03659   0.03675  -0.68264
    D6        0.39012   0.00512   0.00000   0.04040   0.04005   0.43018
    D7       -1.73579  -0.00114   0.00000   0.00738   0.00747  -1.72832
    D8        2.42470  -0.00020   0.00000   0.00931   0.00926   2.43396
    D9       -2.74115  -0.00398   0.00000  -0.02165  -0.02135  -2.76250
   D10       -0.70764  -0.00229   0.00000  -0.00665  -0.00635  -0.71399
   D11       -0.59839   0.00206   0.00000   0.01105   0.01090  -0.58749
   D12        1.43512   0.00375   0.00000   0.02605   0.02590   1.46102
   D13        1.49051   0.00061   0.00000   0.00496   0.00482   1.49533
   D14       -2.75916   0.00230   0.00000   0.01996   0.01982  -2.73934
   D15       -1.02853  -0.00336   0.00000  -0.02526  -0.02539  -1.05392
   D16        1.10585   0.00091   0.00000   0.00648   0.00633   1.11218
   D17       -3.13402  -0.00576   0.00000  -0.03510  -0.03402   3.11515
   D18        3.13671  -0.00019   0.00000  -0.02229  -0.02294   3.11377
   D19       -1.01210   0.00409   0.00000   0.00945   0.00878  -1.00332
   D20        1.03122  -0.00259   0.00000  -0.03213  -0.03157   0.99965
   D21        1.07962  -0.00142   0.00000  -0.02035  -0.02075   1.05887
   D22       -3.06919   0.00286   0.00000   0.01140   0.01097  -3.05822
   D23       -1.02587  -0.00382   0.00000  -0.03018  -0.02938  -1.05525
   D24       -1.28722   0.00145   0.00000   0.00954   0.00957  -1.27765
   D25        1.80817   0.00256   0.00000   0.02295   0.02302   1.83119
   D26        2.87648  -0.00308   0.00000  -0.01905  -0.01921   2.85727
   D27       -0.31132  -0.00197   0.00000  -0.00563  -0.00576  -0.31708
   D28        0.82827   0.00086   0.00000   0.00193   0.00201   0.83028
   D29       -2.35953   0.00197   0.00000   0.01534   0.01546  -2.34406
   D30        3.09755   0.00054   0.00000   0.00608   0.00604   3.10359
   D31       -0.02987  -0.00015   0.00000  -0.00089  -0.00093  -0.03080
   D32        0.00069  -0.00065   0.00000  -0.00719  -0.00719  -0.00650
   D33       -3.12674  -0.00133   0.00000  -0.01416  -0.01415  -3.14089
   D34       -3.09874  -0.00062   0.00000  -0.00706  -0.00708  -3.10581
   D35        0.02590  -0.00045   0.00000  -0.00532  -0.00532   0.02058
   D36       -0.00225   0.00056   0.00000   0.00626   0.00622   0.00396
   D37        3.12238   0.00073   0.00000   0.00800   0.00798   3.13036
   D38        0.00118   0.00032   0.00000   0.00359   0.00361   0.00479
   D39       -3.13485  -0.00022   0.00000  -0.00200  -0.00197  -3.13682
   D40        3.12869   0.00102   0.00000   0.01057   0.01056   3.13925
   D41       -0.00734   0.00048   0.00000   0.00499   0.00498  -0.00236
   D42       -0.00146   0.00009   0.00000   0.00107   0.00108  -0.00038
   D43       -3.13718  -0.00032   0.00000  -0.00309  -0.00301  -3.14019
   D44        3.13459   0.00064   0.00000   0.00668   0.00665   3.14124
   D45       -0.00113   0.00023   0.00000   0.00252   0.00256   0.00142
   D46       -0.00011  -0.00017   0.00000  -0.00198  -0.00200  -0.00211
   D47       -3.13304  -0.00028   0.00000  -0.00325  -0.00329  -3.13634
   D48        3.13565   0.00015   0.00000   0.00191   0.00200   3.13764
   D49        0.00271   0.00004   0.00000   0.00064   0.00070   0.00341
   D50        3.12675   0.00017   0.00000   0.00172   0.00170   3.12845
   D51       -0.00878  -0.00024   0.00000  -0.00254  -0.00252  -0.01130
   D52        0.00200  -0.00015   0.00000  -0.00173  -0.00173   0.00026
   D53       -3.12279  -0.00032   0.00000  -0.00345  -0.00347  -3.12625
   D54        3.13492  -0.00004   0.00000  -0.00044  -0.00042   3.13450
   D55        0.01014  -0.00020   0.00000  -0.00215  -0.00215   0.00798
         Item               Value     Threshold  Converged?
 Maximum Force            0.062929     0.000450     NO 
 RMS     Force            0.015257     0.000300     NO 
 Maximum Displacement     0.639333     0.001800     NO 
 RMS     Displacement     0.160392     0.001200     NO 
 Predicted change in Energy=-3.018937D-02
 GradGradGradGradGradGradGradGradGradGradGradGradGradGradGradGradGradGrad

                          Input orientation:                          
 ---------------------------------------------------------------------
 Center     Atomic      Atomic             Coordinates (Angstroms)
 Number     Number       Type             X           Y           Z
 ---------------------------------------------------------------------
      1          8           0        1.846657    1.180738    2.024423
      2          6           0        2.206063    1.929450    0.959279
      3          8           0        2.391841    3.110593    1.079575
      4          6           0        2.387691    1.179290   -0.368697
      5          7           0        3.334552    1.955371   -1.181897
      6          6           0        1.045031    0.932604   -1.125197
      7          6           0       -0.002667    0.103621   -0.392069
      8          6           0        0.157688   -1.269233   -0.240514
      9          6           0       -0.759583   -2.030728    0.459571
     10          6           0       -1.872586   -1.436475    1.026079
     11          6           0       -2.045068   -0.067732    0.876480
     12          6           0       -1.124209    0.688768    0.178641
     13          8           0       -2.760891   -2.214906    1.713677
     14          1           0        1.615972    0.281828    1.751081
     15          1           0        2.871034    0.211783   -0.159838
     16          1           0        3.229904    1.728331   -2.170446
     17          1           0        3.133776    2.952346   -1.088967
     18          1           0        0.625162    1.910776   -1.397938
     19          1           0        1.288413    0.418252   -2.066769
     20          1           0        1.027698   -1.763939   -0.675061
     21          1           0       -0.613208   -3.105609    0.570808
     22          1           0       -2.916126    0.418880    1.321749
     23          1           0       -1.280082    1.764169    0.090725
     24          1           0       -3.472799   -1.662788    2.057872
 ---------------------------------------------------------------------
                    Distance matrix (angstroms):
                    1          2          3          4          5
     1  O    0.000000
     2  C    1.350657   0.000000
     3  O    2.216823   1.201701   0.000000
     4  C    2.453517   1.535984   2.414009   0.000000
     5  N    3.618615   2.420494   2.708782   1.469742   0.000000
     6  C    3.259492   2.585872   3.379136   1.560731   2.508222
     7  C    3.227943   3.168324   4.115980   2.621339   3.897414
     8  C    3.739641   3.983329   5.090870   3.314304   4.623499
     9  C    4.422077   4.972703   6.062101   4.571168   5.945195
    10  C    4.656100   5.288600   6.234102   5.190143   6.595003
    11  C    4.245230   4.697628   5.461608   4.770208   6.104931
    12  C    3.531996   3.638598   4.363431   3.587984   4.830724
    13  O    5.732055   6.512713   7.437316   6.508820   7.932842
    14  H    0.967456   1.920889   3.009120   2.427848   3.789013
    15  H    2.599850   2.155224   3.188867   1.101505   2.073536
    16  H    4.450860   3.299072   3.629826   2.063266   1.019670
    17  H    3.806372   2.470279   2.297408   2.054059   1.021228
    18  H    3.706422   2.838321   3.270901   2.168160   2.718356
    19  H    4.198914   3.504678   4.285527   2.161259   2.707844
    20  H    4.077871   4.207224   5.357304   3.256692   4.405874
    21  H    5.151379   5.783685   6.923174   5.314925   6.653593
    22  H    4.874247   5.352571   5.956382   5.618390   6.906520
    23  H    3.722376   3.596513   4.034068   3.742420   4.790717
    24  H    6.031863   6.808858   7.624712   6.950610   8.362249
                    6          7          8          9         10
     6  C    0.000000
     7  C    1.523929   0.000000
     8  C    2.533402   1.390471   0.000000
     9  C    3.814375   2.419434   1.382526   0.000000
    10  C    4.330475   2.807069   2.398799   1.383057   0.000000
    11  C    3.815245   2.410391   2.746527   2.383200   1.387655
    12  C    2.542646   1.387791   2.377544   2.758176   2.407255
    13  O    5.696583   4.173432   3.637479   2.368953   1.366686
    14  H    3.003741   2.691624   2.915276   3.557974   3.955785
    15  H    2.187645   2.885097   3.092275   4.312065   5.159950
    16  H    2.549391   4.031354   4.706224   6.079763   6.802144
    17  H    2.905775   4.293969   5.234377   6.510548   6.985616
    18  H    1.098862   2.161423   3.416229   4.572014   4.828943
    19  H    1.100159   2.137873   2.731548   4.071141   4.795585
    20  H    2.733911   2.151631   1.091093   2.133761   3.378277
    21  H    4.683306   3.405737   2.150535   1.090489   2.139933
    22  H    4.684252   3.394820   3.839104   3.375590   2.149124
    23  H    2.752474   2.149953   3.373192   3.848144   3.386749
    24  H    6.105635   4.600460   4.314846   3.170408   1.917419
                   11         12         13         14         15
    11  C    0.000000
    12  C    1.381034   0.000000
    13  O    2.413225   3.669658   0.000000
    14  H    3.780257   3.185398   5.039049   0.000000
    15  H    5.031913   4.037827   6.412289   2.287290   0.000000
    16  H    6.350979   5.055412   8.156295   4.480571   2.543865
    17  H    6.309063   4.986085   8.324806   4.183451   2.905684
    18  H    4.027108   2.653149   6.178086   3.681236   3.076266
    19  H    4.473365   3.306930   6.133690   3.834304   2.486706
    20  H    3.837485   3.372726   4.501427   3.227599   2.750786
    21  H    3.372292   3.848664   2.590761   4.223390   4.866095
    22  H    1.092610   2.142546   2.667308   4.554451   5.977392
    23  H    2.135059   1.090189   4.545306   3.652567   4.438969
    24  H    2.445057   3.818010   0.964426   5.456303   6.976852
                   16         17         18         19         20
    16  H    0.000000
    17  H    1.636170   0.000000
    18  H    2.723001   2.733766   0.000000
    19  H    2.344450   3.283763   1.764897   0.000000
    20  H    4.391109   5.181721   3.766712   2.601304   0.000000
    21  H    6.756549   7.313929   5.529343   4.794848   2.458625
    22  H    7.189142   6.987941   4.707778   5.400019   4.930081
    23  H    5.045210   4.720760   2.422306   3.614338   4.284836
    24  H    8.620011   8.651525   6.442536   6.634194   5.266272
                   21         22         23         24
    21  H    0.000000
    22  H    4.276607   0.000000
    23  H    4.938617   2.449870   0.000000
    24  H    3.531338   2.277082   4.519039   0.000000
 Stoichiometry    C9H11NO3
 Framework group  C1[X(C9H11NO3)]
 Deg. of freedom    66
 Full point group                 C1      NOp   1
 Largest Abelian subgroup         C1      NOp   1
 Largest concise Abelian subgroup C1      NOp   1
                         Standard orientation:                         
 ---------------------------------------------------------------------
 Center     Atomic      Atomic             Coordinates (Angstroms)
 Number     Number       Type             X           Y           Z
 ---------------------------------------------------------------------
      1          8           0       -1.318254    1.580006   -1.084789
      2          6           0       -2.238279    0.941241   -0.329932
      3          8           0       -3.076594    1.563508    0.265127
      4          6           0       -2.158882   -0.592616   -0.314852
      5          7           0       -3.506945   -1.096069   -0.015850
      6          6           0       -1.100893   -1.144580    0.691069
      7          6           0        0.343348   -0.718776    0.456087
      8          6           0        1.077079   -1.250358   -0.598650
      9          6           0        2.373416   -0.843459   -0.854234
     10          6           0        2.977002    0.108555   -0.052862
     11          6           0        2.255517    0.641929    1.005702
     12          6           0        0.959816    0.234075    1.254839
     13          8           0        4.258918    0.491960   -0.331290
     14          1           0       -0.642992    0.962899   -1.399701
     15          1           0       -1.911184   -0.939366   -1.330590
     16          1           0       -3.462419   -2.044620    0.355628
     17          1           0       -3.938583   -0.519475    0.708121
     18          1           0       -1.415562   -0.858928    1.704422
     19          1           0       -1.144147   -2.242851    0.643312
     20          1           0        0.625013   -2.001332   -1.248387
     21          1           0        2.930425   -1.269553   -1.689310
     22          1           0        2.715187    1.398650    1.645915
     23          1           0        0.413971    0.682271    2.085313
     24          1           0        4.537609    1.164918    0.300831
 ---------------------------------------------------------------------
 Rotational constants (GHZ):      1.7639925      0.4203998      0.3895838
 Standard basis: 6-311++G(d,p) (5D, 7F)
 There are   376 symmetry adapted cartesian basis functions of A   symmetry.
 There are   363 symmetry adapted basis functions of A   symmetry.
   363 basis functions,   567 primitive gaussians,   376 cartesian basis functions
    48 alpha electrons       48 beta electrons
       nuclear repulsion energy       779.5440418017 Hartrees.
 NAtoms=   24 NActive=   24 NUniq=   24 SFac= 1.00D+00 NAtFMM=   60 NAOKFM=F Big=F
 Integral buffers will be    131072 words long.
 Raffenetti 2 integral format.
 Two-electron integral symmetry is turned on.
 One-electron integrals computed using PRISM.
 NBasis=   363 RedAO= T EigKep=  2.12D-06  NBF=   363
 NBsUse=   362 1.00D-06 EigRej=  6.41D-07 NBFU=   362
 Initial guess from the checkpoint file:  "Anth_340.chk"
 B after Tr=     0.000000    0.000000    0.000000
         Rot=    0.999611   -0.020525   -0.008348   -0.016936 Ang=  -3.20 deg.
 ExpMin= 3.60D-02 ExpMax= 8.59D+03 ExpMxC= 1.30D+03 IAcc=3 IRadAn=         5 AccDes= 0.00D+00
 Harris functional with IExCor=  402 and IRadAn=       5 diagonalized for initial guess.
 HarFok:  IExCor=  402 AccDes= 0.00D+00 IRadAn=         5 IDoV= 1 UseB2=F ITyADJ=14
[...]
     2  C    0.000277   0.022131  -0.373960  -0.000999  -0.022476  -0.101990
     3  O   -0.000003   0.021264  -0.010226   0.004865   0.021134   0.008553
     4  C   -0.000214  -0.016336   0.716107   0.019171  -0.049496   0.126804
     5  N    0.000005   0.005558  -0.061783   0.354240   0.380715  -0.013671
     6  C   -0.004190  -0.032239   0.190753  -0.068825   0.059804   0.543523
     7  C    0.013709   0.034106  -0.709387  -0.009926  -0.021206  -0.288891
     8  C    0.042563  -0.015634   0.315772   0.015085  -0.007961   0.069501
     9  C   -0.402769  -0.017663   0.057195   0.002431   0.001373  -0.046518
    10  C    0.363127   0.010829  -0.014803  -0.000012  -0.000453  -0.012484
    11  C    0.075635   0.024742   0.077333   0.002726  -0.002980   0.077503
    12  C   -0.048372   0.027067  -0.168048   0.000119   0.002581  -0.054645
    13  O    7.987495  -0.000905   0.000028   0.000000   0.000004  -0.000094
    14  H   -0.000905   0.497897  -0.030496  -0.000056  -0.000184   0.000444
    15  H    0.000028  -0.030496   0.790327   0.005501   0.007207   0.020756
    16  H    0.000000  -0.000056   0.005501   0.506453  -0.049465   0.000321
    17  H    0.000004  -0.000184   0.007207  -0.049465   0.416336  -0.002450
    18  H   -0.000094   0.000444   0.020756   0.000321  -0.002450   0.533013
    19  H   -0.000351   0.000890  -0.041610   0.003726   0.003415  -0.048439
    20  H    0.000819   0.005602  -0.012479  -0.000342  -0.000688   0.007302
    21  H   -0.031723  -0.001423   0.000824  -0.000023   0.000054  -0.000919
    22  H   -0.013460  -0.000240   0.001374   0.000048  -0.000037   0.002759
    23  H   -0.001626  -0.000346  -0.005761   0.000133   0.000741  -0.013809
    24  H    0.244068  -0.000035   0.000039  -0.000001  -0.000001   0.000026
              19         20         21         22         23         24
     1  O   -0.009006   0.001741  -0.000183  -0.000261   0.009444  -0.000119
     2  C    0.077490  -0.008904   0.002173  -0.001551  -0.002543   0.000048
     3  O   -0.005708   0.000842  -0.000079   0.000068  -0.004446   0.000003
     4  C   -0.274801   0.021987  -0.003167   0.000511  -0.006530   0.000610
     5  N   -0.009777  -0.001878  -0.000025   0.000551  -0.002803  -0.000018
     6  C    0.359787   0.027806  -0.000198   0.028461  -0.084429  -0.002706
     7  C    0.243222  -0.010118   0.017965   0.035908  -0.046294   0.001835
     8  C   -0.067998   0.488789  -0.166438   0.039194  -0.134413  -0.002931
     9  C    0.023324  -0.249215   0.647677  -0.071454   0.095051   0.087480
    10  C   -0.005156   0.018203  -0.132230  -0.236445   0.079175   0.078884
    11  C   -0.070722   0.093791  -0.144577   0.559117  -0.188284  -0.148905
    12  C    0.045220  -0.079838   0.100092  -0.046148   0.596834  -0.009077
    13  O   -0.000351   0.000819  -0.031723  -0.013460  -0.001626   0.244068
    14  H    0.000890   0.005602  -0.001423  -0.000240  -0.000346  -0.000035
    15  H   -0.041610  -0.012479   0.000824   0.001374  -0.005761   0.000039
    16  H    0.003726  -0.000342  -0.000023   0.000048   0.000133  -0.000001
    17  H    0.003415  -0.000688   0.000054  -0.000037   0.000741  -0.000001
    18  H   -0.048439   0.007302  -0.000919   0.002759  -0.013809   0.000026
    19  H    0.600753  -0.009932   0.001861  -0.000250   0.008140  -0.000110
    20  H   -0.009932   0.563487  -0.027749   0.002535  -0.007002  -0.000230
    21  H    0.001861  -0.027749   0.533427  -0.003161   0.003681   0.003421
    22  H   -0.000250   0.002535  -0.003161   0.579391  -0.025953  -0.002306
    23  H    0.008140  -0.007002   0.003681  -0.025953   0.556575   0.000830
    24  H   -0.000110  -0.000230   0.003421  -0.002306   0.000830   0.485190
 Mulliken charges:
               1
     1  O   -0.100825
     2  C   -0.103048
     3  O   -0.264793
     4  C   -0.500791
     5  N   -0.268411
     6  C   -0.216215
     7  C    0.804518
     8  C   -0.293360
     9  C   -0.277366
    10  C   -0.306801
    11  C   -0.072854
    12  C   -0.446183
    13  O   -0.224211
    14  H    0.260892
    15  H    0.204024
    16  H    0.215186
    17  H    0.257147
    18  H    0.191881
    19  H    0.176030
    20  H    0.175471
    21  H    0.200718
    22  H    0.151347
    23  H    0.173636
    24  H    0.264006
 Sum of Mulliken charges =   0.00000
 Mulliken charges with hydrogens summed into heavy atoms:
               1
     1  O    0.160067
     2  C   -0.103048
     3  O   -0.264793
     4  C   -0.296766
     5  N    0.203922
     6  C    0.151697
     7  C    0.804518
     8  C   -0.117889
     9  C   -0.076648
    10  C   -0.306801
    11  C    0.078493
    12  C   -0.272547
    13  O    0.039795
 Electronic spatial extent (au):  <R**2>=           2871.4760
 Charge=              0.0000 electrons
 Dipole moment (field-independent basis, Debye):
    X=              3.4924    Y=             -2.1939    Z=              1.4649  Tot=              4.3767
 Quadrupole moment (field-independent basis, Debye-Ang):
   XX=            -87.2647   YY=            -78.4659   ZZ=            -75.5076
   XY=             15.0678   XZ=             -0.7250   YZ=              2.9431
 Traceless Quadrupole moment (field-independent basis, Debye-Ang):
   XX=             -6.8520   YY=              1.9469   ZZ=              4.9051
   XY=             15.0678   XZ=             -0.7250   YZ=              2.9431
 Octapole moment (field-independent basis, Debye-Ang**2):
  XXX=             54.2166  YYY=             -8.8188  ZZZ=             -5.2889  XYY=             22.4755
  XXY=             12.2276  XXZ=             35.3467  XZZ=             -2.5579  YZZ=              4.8537
  YYZ=              3.2602  XYZ=             18.1957
 Hexadecapole moment (field-independent basis, Debye-Ang**3):
 XXXX=          -2913.9166 YYYY=           -578.9699 ZZZZ=           -328.7170 XXXY=            198.4088
 XXXZ=             12.3711 YYYX=             64.6576 YYYZ=              5.5767 ZZZX=            -11.2141
 ZZZY=              5.7551 XXYY=           -550.5172 XXZZ=           -536.8296 YYZZ=           -148.1117
 XXYZ=             -2.4226 YYXZ=            -15.6006 ZZXY=             -3.8617
 N-N= 7.800472739157D+02 E-N=-3.032095170141D+03  KE= 6.277267231509D+02

 **********************************************************************

            Electrostatic Properties Using The SCF Density

 **********************************************************************

       Atomic Center    1 is at  -1.293133  1.547755 -1.043796
       Atomic Center    2 is at  -2.269925  0.898511 -0.372066
       Atomic Center    3 is at  -3.168225  1.512703  0.137169
       Atomic Center    4 is at  -2.138846 -0.626898 -0.283683
       Atomic Center    5 is at  -3.466298 -1.181738 -0.075972
       Atomic Center    6 is at  -1.103185 -1.014805  0.822455
       Atomic Center    7 is at   0.328857 -0.630811  0.524385
       Atomic Center    8 is at   1.067563 -1.314600 -0.453709
       Atomic Center    9 is at   2.377528 -0.962276 -0.757454
       Atomic Center   10 is at   2.985041  0.093462 -0.075092
       Atomic Center   11 is at   2.272392  0.784154  0.905382
       Atomic Center   12 is at   0.958985  0.421324  1.195496
       Atomic Center   13 is at   4.274758  0.399236 -0.409578
       Atomic Center   14 is at  -0.602506  0.930454 -1.322496
       Atomic Center   15 is at  -1.747887 -0.989204 -1.243486
       Atomic Center   16 is at  -3.432715 -2.084929  0.381623
       Atomic Center   17 is at  -4.030621 -0.544696  0.477977
       Atomic Center   18 is at  -1.428725 -0.574982  1.769459
       Atomic Center   19 is at  -1.171274 -2.102265  0.936592
       Atomic Center   20 is at   0.616304 -2.149971 -0.980663
       Atomic Center   21 is at   2.943504 -1.498255 -1.509675
       Atomic Center   22 is at   2.738544  1.605427  1.441610
       Atomic Center   23 is at   0.416857  0.973697  1.955658
       Atomic Center   24 is at   4.584958  1.140965  0.120567
 -----------------------------------------------------------------

              Electrostatic Properties (Atomic Units)

 -----------------------------------------------------------------
    Center     Electric         -------- Electric Field --------
               Potential          X             Y             Z
 -----------------------------------------------------------------
    1 Atom    -22.318329      0.000456      0.046774     -0.007977
    2 Atom    -14.638330     -0.000624     -0.015051      0.001071
    3 Atom    -22.379367     -0.038601      0.028309      0.020952
    4 Atom    -14.710335      0.004111      0.000121      0.000584
    5 Atom    -18.407119     -0.015380     -0.002394     -0.029332
    6 Atom    -14.745992     -0.000923      0.000756     -0.000902
    7 Atom    -14.749722     -0.001176     -0.000838      0.000967
    8 Atom    -14.752771     -0.000067     -0.000266      0.001014
    9 Atom    -14.759005      0.000320     -0.001398     -0.001023
   10 Atom    -14.692716     -0.011328     -0.003077      0.002695
   11 Atom    -14.754843     -0.000743      0.000177      0.000813
   12 Atom    -14.753767     -0.000636     -0.000459      0.000506
   13 Atom    -22.320521      0.027753     -0.022592     -0.033844
   14 Atom     -0.954459      0.019098     -0.014461     -0.007734
   15 Atom     -1.098269      0.005883     -0.006622     -0.016036
   16 Atom     -1.051662      0.000256     -0.019109      0.009468
   17 Atom     -1.056941     -0.012441      0.013105      0.011439
   18 Atom     -1.099852     -0.005588      0.007112      0.015990
   19 Atom     -1.096579     -0.001084     -0.017800      0.002075
   20 Atom     -1.087204     -0.007843     -0.014725     -0.009195
   21 Atom     -1.088462      0.010172     -0.009670     -0.013482
   22 Atom     -1.078480      0.007835      0.014324      0.009499
   23 Atom     -1.090116     -0.009500      0.009737      0.013424
   24 Atom     -0.958157      0.009843      0.019528      0.013184
 -----------------------------------------------------------------
 -----------------------------------------------------
    Center         ---- Electric Field Gradient ----
                     XX            YY            ZZ
 -----------------------------------------------------
    1 Atom    -1238.025731  -1236.766708  -1236.626453
    2 Atom     -501.328384   -500.997383   -501.570443
    3 Atom    -1238.337886  -1236.933093  -1238.637744
    4 Atom     -500.489073   -500.418411   -500.308333
    5 Atom     -813.027788   -813.134608   -811.856714
    6 Atom     -500.460408   -500.364639   -500.419967
    7 Atom     -500.710326   -500.747297   -500.788057
    8 Atom     -500.804788   -500.971034   -500.989956
    9 Atom     -500.722245   -500.868650   -500.893490
   10 Atom     -501.093357   -500.759666   -500.802001
   11 Atom     -500.685294   -500.834854   -500.847601
   12 Atom     -500.838999   -500.985920   -501.031140
   13 Atom    -1237.516683  -1236.536056  -1235.833876
   14 Atom       -1.850140     -1.785794     -1.551708
   15 Atom       -1.780327     -1.774104     -2.046895
   16 Atom       -1.650434     -2.110891     -1.721967
   17 Atom       -1.785813     -1.835450     -1.748644
   18 Atom       -1.739255     -1.768054     -2.027897
   19 Atom       -1.704439     -2.134247     -1.697980
   20 Atom       -1.775116     -1.959711     -1.793294
   21 Atom       -1.801594     -1.785272     -1.893363
   22 Atom       -1.773415     -1.937497     -1.784450
   23 Atom       -1.807297     -1.802748     -1.909442
   24 Atom       -1.628131     -1.931618     -1.728501
 -----------------------------------------------------
 -----------------------------------------------------
    Center         ---- Electric Field Gradient ----
                     XY            XZ            YZ
 -----------------------------------------------------
    1 Atom        0.219275      1.140190      0.098566
    2 Atom       -0.181685     -0.206719      0.052851
    3 Atom        0.733588     -0.405113     -0.619628
    4 Atom       -0.080541     -0.017938      0.033548
    5 Atom       -0.047058      0.644220      0.211232
    6 Atom        0.002317     -0.035693      0.061113
    7 Atom        0.058692     -0.066642      0.185409
    8 Atom        0.088798     -0.128070      0.193983
    9 Atom        0.081427     -0.094019      0.144205
   10 Atom       -0.011025     -0.002357      0.294685
   11 Atom        0.064123     -0.082337      0.109359
   12 Atom        0.114345     -0.097266      0.207565
   13 Atom       -1.166533      0.110735     -0.805519
   14 Atom        0.291368      0.160356     -0.112995
   15 Atom        0.046118      0.138720     -0.122148
   16 Atom        0.028018      0.011973      0.250619
   17 Atom        0.187974      0.202215     -0.190127
   18 Atom        0.052100      0.112329     -0.157281
   19 Atom       -0.029058      0.000866      0.042617
   20 Atom       -0.152413     -0.088351     -0.181464
   21 Atom        0.115473      0.173196     -0.171800
   22 Atom       -0.157621     -0.089900     -0.184076
   23 Atom        0.111663      0.166796     -0.174496
   24 Atom       -0.185234     -0.108036     -0.306799
 -----------------------------------------------------
 -----------------------------------------------------
    Center         ---- Electric Field Gradient ----
                   ----       Eigenvalues       ----
 -----------------------------------------------------
    1 Atom    -1238.674653  -1236.801548  -1235.942691
    2 Atom     -501.692129   -501.314705   -500.889376
    3 Atom    -1238.928216  -1238.597124  -1236.383384
    4 Atom     -500.541741   -500.384605   -500.289472
    5 Atom     -813.383832   -813.082864   -811.552414
    6 Atom     -500.492087   -500.430029   -500.322898
    7 Atom     -500.983110   -500.681425   -500.581146
    8 Atom     -501.230565   -500.796819   -500.738393
    9 Atom     -501.070233   -500.736519   -500.677633
   10 Atom     -501.095272   -501.074516   -500.485235
   11 Atom     -500.986637   -500.732686   -500.648426
   12 Atom     -501.268901   -500.813582   -500.773576
   13 Atom    -1238.345993  -1236.494857  -1235.045766
   14 Atom       -2.172350     -1.535333     -1.479959
   15 Atom       -2.151130     -1.731532     -1.718664
   16 Atom       -2.234323     -1.658698     -1.590271
   17 Atom       -2.178378     -1.629293     -1.562237
   18 Atom       -2.140215     -1.701086     -1.693905
   19 Atom       -2.140301     -1.702920     -1.693444
   20 Atom       -2.157221     -1.696676     -1.674225
   21 Atom       -2.145299     -1.678994     -1.655936
   22 Atom       -2.147894     -1.690436     -1.657032
   23 Atom       -2.154431     -1.694655     -1.670400
   24 Atom       -2.229097     -1.559663     -1.499490
 -----------------------------------------------------
 -----------------------------------------------------
    Center         ---- Electric Field Gradient ----
                       ( tensor representation )
                   3XX-RR        3YY-RR        3ZZ-RR
 -----------------------------------------------------
    1 Atom       -0.886100      0.372922      0.513178
    2 Atom       -0.029647      0.301354     -0.271707
    3 Atom       -0.368311      1.036481     -0.668170
    4 Atom       -0.083800     -0.013139      0.096939
    5 Atom       -0.354751     -0.461571      0.816322
    6 Atom       -0.045403      0.050366     -0.004962
    7 Atom        0.038234      0.001263     -0.039497
    8 Atom        0.117138     -0.049108     -0.068030
    9 Atom        0.105883     -0.040522     -0.065362
   10 Atom       -0.208349      0.125342      0.083007
   11 Atom        0.103956     -0.045604     -0.058351
   12 Atom        0.113021     -0.033900     -0.079120
   13 Atom       -0.887811      0.092816      0.794996
   14 Atom       -0.120926     -0.056580      0.177506
   15 Atom        0.086782      0.093005     -0.179786
   16 Atom        0.177330     -0.283127      0.105797
   17 Atom        0.004156     -0.045481      0.041325
   18 Atom        0.105814      0.077015     -0.182828
   19 Atom        0.141117     -0.288692      0.147575
   20 Atom        0.067591     -0.117004      0.049413
   21 Atom        0.025149      0.041471     -0.066620
   22 Atom        0.058372     -0.105710      0.047338
   23 Atom        0.032532      0.037081     -0.069613
   24 Atom        0.134619     -0.168868      0.034249
 -----------------------------------------------------
 -----------------------------------------------------
    Center         ---- Electric Field Gradient ----
                       ( tensor representation )
                   ----       Eigenvalues       ----
 -----------------------------------------------------
    1 Atom       -1.535022      0.338083      1.196939
    2 Atom       -0.393392     -0.015968      0.409361
    3 Atom       -0.958641     -0.627549      1.586190
    4 Atom       -0.136468      0.020668      0.115800
    5 Atom       -0.710795     -0.409828      1.120623
    6 Atom       -0.077083     -0.015024      0.092107
    7 Atom       -0.234549      0.067135      0.167414
    8 Atom       -0.308639      0.125107      0.183532
    9 Atom       -0.242104      0.091609      0.150495
   10 Atom       -0.210265     -0.189508      0.399773
   11 Atom       -0.197387      0.056564      0.140824
   12 Atom       -0.316881      0.138438      0.178444
   13 Atom       -1.717121      0.134015      1.583106
   14 Atom       -0.443136      0.193881      0.249255
   15 Atom       -0.284021      0.135576      0.148445
   16 Atom       -0.406559      0.169066      0.237493
   17 Atom       -0.388408      0.160676      0.227732
   18 Atom       -0.295147      0.143983      0.151164
   19 Atom       -0.294746      0.142635      0.152111
   20 Atom       -0.314513      0.146031      0.168482
   21 Atom       -0.318556      0.147749      0.170807
   22 Atom       -0.316107      0.141351      0.174755
   23 Atom       -0.314602      0.145173      0.169429
   24 Atom       -0.466347      0.203087      0.263260
 -----------------------------------------------------

 Test job not archived.
 1|1|UNPC-NP-ALMACH|FOpt|RB3LYP|6-311++G(d,p)|C9H11N1O3|HERA|04-Aug-201
 8|0||# RB3LYP/6-311++G** Opt Test prop=EFG||C9NH11O3||0,1|O,1.69169263
 39,1.3481468267,1.971713163|C,2.1895429707,2.0010296974,0.8980516677|O
 ,2.4382660785,3.1746826045,0.9626206609|C,2.3808070441,1.1703842852,-0
 .3768262964|N,3.4042092056,1.8137046764,-1.1842332807|C,1.0110372677,0
 .985208534,-1.108979334|C,-0.0003203359,0.1346371205,-0.3736389358|C,0
 .1693925913,-1.2546888863,-0.2692709834|C,-0.7374375307,-2.0505402695,
 0.421149452|C,-1.8511099284,-1.4642058347,1.0254813176|C,-2.0438631243
 ,-0.0857939589,0.9301832899|C,-1.1238719471,0.6985913106,0.2379368014|
 O,-2.7134785169,-2.29029921,1.6907915373|H,1.4659510132,0.436068732,1.
 7418140949|H,2.7346158697,0.1738815765,-0.0816368574|H,3.3094691196,1.
 5880511911,-2.1672799076|H,3.3639719622,2.8213202877,-1.0649329702|H,0
 .5969772473,1.9748942034,-1.3218537578|H,1.241226494,0.5221117338,-2.0
 747888124|H,1.0201915239,-1.7290034624,-0.7491954387|H,-0.6029869884,-
 3.123031227,0.4927504145|H,-2.9084750875,0.3774604654,1.3961986401|H,-
 1.2851286234,1.7697950624,0.1797654387|H,-3.436415939,-1.7770164588,2.
 0667460963||Version=EM64W-G09RevD.01|State=1-A|HF=-630.200031|RMSD=6.2
 83e-009|RMSF=7.796e-006|Dipole=-1.206558,-0.9550773,-0.7727187|Quadrup
 ole=2.3494593,-5.705602,3.3561427,-7.7757029,-6.8737687,-4.3439834|PG=
 C01 [X(C9H11N1O3)]||@


 CHILDREN YOU ARE VERY LITTLE,
 AND YOUR BONES ARE VERY BRITTLE;
 IF YOU WOULD GROW GREAT AND STATELY
 YOU MUST TRY TO WALK SEDATELY.
 YOU MUST STILL BE BRIGHT AND QUIET,
 AND CONTENT WITH SIMPLE DIET;
 AND REMAIN, THROUGH ALL BEWILD'RING
 INNOCENT AND HONEST CHILDREN.
     -- A CHILD'S GARDEN OF VERSE,
        ROBERT LOUIS STEVENSON
 Job cpu time:       0 days  0 hours 22 minutes 52.0 seconds.
 File lengths (MBytes):  RWF=     60 Int=      0 D2E=      0 Chk=     10 Scr=      1
 Normal termination of Gaussian 09 at Sat Aug 04 07:50:46 2018.
