 Entering Link 1 = C:\G09W\l1.exe PID=      3676.
  
 Copyright (c) 1988,1990,1992,1993,1995,1998,2003,2009,2013,
            Gaussian, Inc.  All Rights Reserved.
  
 This is part of the Gaussian(R) 09 program.  It is based on
 the Gaussian(R) 03 system (copyright 2003, Gaussian, Inc.),
 the Gaussian(R) 98 system (copyright 1998, Gaussian, Inc.),
 the Gaussian(R) 94 system (copyright 1995, Gaussian, Inc.),
 the Gaussian 92(TM) system (copyright 1992, Gaussian, Inc.),
 the Gaussian 90(TM) system (copyright 1990, Gaussian, Inc.),
 the Gaussian 88(TM) system (copyright 1988, Gaussian, Inc.),
 the Gaussian 86(TM) system (copyright 1986, Carnegie Mellon
 University), and the Gaussian 82(TM) system (copyright 1983,
 Carnegie Mellon University). Gaussian is a federally registered
 trademark of Gaussian, Inc.
  
 This software contains proprietary and confidential information,
 including trade secrets, belonging to Gaussian, Inc.
  
 This software is provided under written license and may be
 used, copied, transmitted, or stored only in accord with that
 written license.
  
 The following legend is applicable only to US Government
 contracts under FAR:
  
                    RESTRICTED RIGHTS LEGEND
  
 Use, reproduction and disclosure by the US Government is
 subject to restrictions as set forth in subparagraphs (a)
 and (c) of the Commercial Computer Software - Restricted
 Rights clause in FAR 52.227-19.
  
 Gaussian, Inc.
 340 Quinnipiac St., Bldg. 40, Wallingford CT 06492
  
  
 ---------------------------------------------------------------
 Warning -- This program may not be used in any manner that
 competes with the business of Gaussian, Inc. or will provide
 assistance to any competitor of Gaussian, Inc.  The licensee
 of this program is prohibited from giving any competitor of
 Gaussian, Inc. access to this program.  By using this program,
 the user acknowledges that Gaussian, Inc. is engaged in the
 business of creating and licensing software in the field of
 computational chemistry and represents and warrants to the
 licensee that it is not a competitor of Gaussian, Inc. and that
 it will not use this program in any manner prohibited above.
 ---------------------------------------------------------------
  

 Cite this work as:
 Gaussian 09, Revision D.01,
 M. J. Frisch, G. W. Trucks, H. B. Schlegel, G. E. Scuseria, 
 M. A. Robb, J. R. Cheeseman, G. Scalmani, V. Barone, B. Mennucci, 
 G. A. Petersson, H. Nakatsuji, M. Caricato, X. Li, H. P. Hratchian, 
 A. F. Izmaylov, J. Bloino, G. Zheng, J. L. Sonnenberg, M. Hada, 
 M. Ehara, K. Toyota, R. Fukuda, J. Hasegawa, M. Ishida, T. Nakajima, 
 Y. Honda, O. Kitao, H. Nakai, T. Vreven, J. A. Montgomery, Jr., 
 J. E. Peralta, F. Ogliaro, M. Bearpark, J. J. Heyd, E. Brothers, 
 K. N. Kudin, V. N. Staroverov, T. Keith, R. Kobayashi, J. Normand, 
 K. Raghavachari, A. Rendell, J. C. Burant, S. S. Iyengar, J. Tomasi, 
 M. Cossi, N. Rega, J. M. Millam, M. Klene, J. E. Knox, J. B. Cross, 
 V. Bakken, C. Adamo, J. Jaramillo, R. Gomperts, R. E. Stratmann, 
 O. Yazyev, A. J. Austin, R. Cammi, C. Pomelli, J. W. Ochterski, 
 R. L. Martin, K. Morokuma, V. G. Zakrzewski, G. A. Voth, 
 P. Salvador, J. J. Dannenberg, S. Dapprich, A. D. Daniels, 
 O. Farkas, J. B. Foresman, J. V. Ortiz, J. Cioslowski, 
 and D. J. Fox, Gaussian, Inc., Wallingford CT, 2013.
 
 ******************************************
 Gaussian 09:  EM64W-G09RevD.01 13-Apr-2013
                24-Aug-2018 
 ******************************************
 %Chk=Anth_352.chk
 %Mem=64GB
 %NProcShared=20
 Will use up to   20 processors via shared memory.
 -------------------------------------
 # RB3LYP/6-311++G** Opt Test prop=EFG
 -------------------------------------
 1/14=-1,18=20,19=15,26=3,38=1/1,3;
 2/9=110,12=2,17=6,18=5,40=1/2;
 3/5=4,6=6,7=1111,11=2,16=1,25=1,30=1,71=1,74=-5,116=1/1,2,3;
 4//1;
 5/5=2,38=5/2;
 6/7=2,8=2,9=2,10=2,14=1,28=1/1,2;
 7//1,2,3,16;
 1/14=-1,18=20,19=15,26=3/3(2);
 2/9=110/2;
 99//99;
 2/9=110/2;
 3/5=4,6=6,7=1111,11=2,16=1,25=1,30=1,71=1,74=-5,116=1/1,2,3;
 4/5=5,16=3,69=1/1;
 5/5=2,38=5/2;
 7//1,2,3,16;
 1/14=-1,18=20,19=15,26=3/3(-5);
 2/9=110/2;
 6/7=2,8=2,9=2,10=2,14=1,19=2,28=1/1,2;
 99/9=1/99;
 ----------
 C13N2H21O2
 ----------
 Symbolic Z-matrix:
 Charge =  1 Multiplicity = 1
 N                     1.36645  -5.31624   1.64549 
 C                     0.83815  -1.97332   0.81672 
 C                     1.46334  -3.14485   1.016 
 C                     0.77704  -4.21002   1.45684 
 C                    -0.53793  -4.09251   1.69556 
 C                    -1.16029  -2.91935   1.49524 
 C                    -0.48131  -1.84258   1.05353 
 C                    -1.09654  -0.63998   0.844 
 O                    -0.3885    0.4588    0.39738 
 O                    -2.28417  -0.48379   1.05419 
 C                    -1.0655    1.69341   0.31566 
 C                    -0.0809    2.79989  -0.06733 
 N                    -0.82098   4.10262  -0.34086 
 C                    -1.73093   4.57552   0.78049 
 C                     0.10787   5.21131  -0.80729 
 C                    -0.95608   4.833     2.079 
 C                     0.72606   4.83558  -2.16071 
 H                     0.82801  -6.14837   1.99032 
 H                     2.39509  -5.40528   1.4579 
 H                     1.44708  -1.12853   0.45333 
 H                     2.54555  -3.22255   0.81387 
 H                    -1.11812  -4.95852   2.05833 
 H                    -2.24165  -2.88093   1.70784 
 H                    -1.86474   1.62152  -0.45934 
 H                    -1.50631   1.91291   1.31532 
 H                     0.69168   2.93657   0.72299 
 H                     0.44178   2.46587  -0.99246 
 H                    -1.45737   3.90384  -1.14937 
 H                    -2.25044   5.50946   0.46221 
 H                    -2.54555   3.83709   0.95247 
 H                    -0.48128   6.14837  -0.94956 
 H                     0.90885   5.41315  -0.06008 
 H                    -1.6492    5.19557   2.87299 
 H                    -0.47392   3.9125    2.47571 
 H                    -0.17307   5.6137    1.95799 
 H                     1.21427   5.7233   -2.62558 
 H                     1.51884   4.06038  -2.06849 
 H                    -0.04881   4.47018  -2.87299 
 

 GradGradGradGradGradGradGradGradGradGradGradGradGradGradGradGradGradGrad
 Berny optimization.
 Initialization pass.
                           ----------------------------
                           !    Initial Parameters    !
                           ! (Angstroms and Degrees)  !
 --------------------------                            --------------------------
 ! Name  Definition              Value          Derivative Info.                !
 --------------------------------------------------------------------------------
 ! R1    R(1,4)                  1.2676         estimate D2E/DX2                !
 ! R2    R(1,18)                 1.0494         estimate D2E/DX2                !
 ! R3    R(1,19)                 1.0494         estimate D2E/DX2                !
 ! R4    R(2,3)                  1.3428         estimate D2E/DX2                !
 ! R5    R(2,7)                  1.3469         estimate D2E/DX2                !
 ! R6    R(2,20)                 1.103          estimate D2E/DX2                !
 ! R7    R(3,4)                  1.3416         estimate D2E/DX2                !
 ! R8    R(3,21)                 1.1037         estimate D2E/DX2                !
 ! R9    R(4,5)                  1.3416         estimate D2E/DX2                !
 ! R10   R(5,6)                  1.343          estimate D2E/DX2                !
 ! R11   R(5,22)                 1.1037         estimate D2E/DX2                !
 ! R12   R(6,7)                  1.3474         estimate D2E/DX2                !
 ! R13   R(6,23)                 1.1027         estimate D2E/DX2                !
 ! R14   R(7,8)                  1.367          estimate D2E/DX2                !
 ! R15   R(8,9)                  1.3813         estimate D2E/DX2                !
 ! R16   R(8,10)                 1.2162         estimate D2E/DX2                !
 ! R17   R(9,11)                 1.4104         estimate D2E/DX2                !
 ! R18   R(11,12)                1.5298         estimate D2E/DX2                !
 ! R19   R(11,24)                1.1156         estimate D2E/DX2                !
 ! R20   R(11,25)                1.1144         estimate D2E/DX2                !
 ! R21   R(12,13)                1.523          estimate D2E/DX2                !
 ! R22   R(12,26)                1.1136         estimate D2E/DX2                !
 ! R23   R(12,27)                1.1138         estimate D2E/DX2                !
 ! R24   R(13,14)                1.5196         estimate D2E/DX2                !
 ! R25   R(13,15)                1.5197         estimate D2E/DX2                !
 ! R26   R(13,28)                1.0479         estimate D2E/DX2                !
 ! R27   R(14,16)                1.5339         estimate D2E/DX2                !
 ! R28   R(14,29)                1.1151         estimate D2E/DX2                !
 ! R29   R(14,30)                1.1129         estimate D2E/DX2                !
 ! R30   R(15,17)                1.5346         estimate D2E/DX2                !
 ! R31   R(15,31)                1.116          estimate D2E/DX2                !
 ! R32   R(15,32)                1.1138         estimate D2E/DX2                !
 ! R33   R(16,33)                1.1146         estimate D2E/DX2                !
 ! R34   R(16,34)                1.1123         estimate D2E/DX2                !
 ! R35   R(16,35)                1.1123         estimate D2E/DX2                !
 ! R36   R(17,36)                1.1147         estimate D2E/DX2                !
 ! R37   R(17,37)                1.1126         estimate D2E/DX2                !
 ! R38   R(17,38)                1.1141         estimate D2E/DX2                !
 ! A1    A(4,1,18)             120.1552         estimate D2E/DX2                !
 ! A2    A(4,1,19)             120.2146         estimate D2E/DX2                !
 ! A3    A(18,1,19)            119.6302         estimate D2E/DX2                !
 ! A4    A(3,2,7)              120.9776         estimate D2E/DX2                !
 ! A5    A(3,2,20)             117.3929         estimate D2E/DX2                !
 ! A6    A(7,2,20)             121.6295         estimate D2E/DX2                !
 ! A7    A(2,3,4)              120.2174         estimate D2E/DX2                !
 ! A8    A(2,3,21)             119.3925         estimate D2E/DX2                !
 ! A9    A(4,3,21)             120.3901         estimate D2E/DX2                !
 ! A10   A(1,4,3)              120.2602         estimate D2E/DX2                !
 ! A11   A(1,4,5)              120.3788         estimate D2E/DX2                !
 ! A12   A(3,4,5)              119.361          estimate D2E/DX2                !
 ! A13   A(4,5,6)              120.2755         estimate D2E/DX2                !
 ! A14   A(4,5,22)             120.3302         estimate D2E/DX2                !
 ! A15   A(6,5,22)             119.3943         estimate D2E/DX2                !
 ! A16   A(5,6,7)              120.8929         estimate D2E/DX2                !
 ! A17   A(5,6,23)             117.1347         estimate D2E/DX2                !
 ! A18   A(7,6,23)             121.9725         estimate D2E/DX2                !
 ! A19   A(2,7,6)              118.2756         estimate D2E/DX2                !
 ! A20   A(2,7,8)              119.9559         estimate D2E/DX2                !
 ! A21   A(6,7,8)              121.7685         estimate D2E/DX2                !
 ! A22   A(7,8,9)              121.2425         estimate D2E/DX2                !
 ! A23   A(7,8,10)             121.7353         estimate D2E/DX2                !
 ! A24   A(9,8,10)             117.0179         estimate D2E/DX2                !
 ! A25   A(8,9,11)             117.9692         estimate D2E/DX2                !
 ! A26   A(9,11,12)            109.7971         estimate D2E/DX2                !
 ! A27   A(9,11,24)            109.1306         estimate D2E/DX2                !
 ! A28   A(9,11,25)            108.0784         estimate D2E/DX2                !
 ! A29   A(12,11,24)           109.4983         estimate D2E/DX2                !
 ! A30   A(12,11,25)           109.6762         estimate D2E/DX2                !
 ! A31   A(24,11,25)           110.6389         estimate D2E/DX2                !
 ! A32   A(11,12,13)           110.5401         estimate D2E/DX2                !
 ! A33   A(11,12,26)           110.9529         estimate D2E/DX2                !
 ! A34   A(11,12,27)           107.0408         estimate D2E/DX2                !
 ! A35   A(13,12,26)           111.0745         estimate D2E/DX2                !
 ! A36   A(13,12,27)           109.5942         estimate D2E/DX2                !
 ! A37   A(26,12,27)           107.5005         estimate D2E/DX2                !
 ! A38   A(12,13,14)           115.1282         estimate D2E/DX2                !
 ! A39   A(12,13,15)           112.4659         estimate D2E/DX2                !
 ! A40   A(12,13,28)           105.748          estimate D2E/DX2                !
 ! A41   A(14,13,15)           111.4357         estimate D2E/DX2                !
 ! A42   A(14,13,28)           105.3499         estimate D2E/DX2                !
 ! A43   A(15,13,28)           105.8281         estimate D2E/DX2                !
 ! A44   A(13,14,16)           111.99           estimate D2E/DX2                !
 ! A45   A(13,14,29)           109.2083         estimate D2E/DX2                !
 ! A46   A(13,14,30)           110.2357         estimate D2E/DX2                !
 ! A47   A(16,14,29)           109.657          estimate D2E/DX2                !
 ! A48   A(16,14,30)           110.5079         estimate D2E/DX2                !
 ! A49   A(29,14,30)           104.9998         estimate D2E/DX2                !
 ! A50   A(13,15,17)           109.7719         estimate D2E/DX2                !
 ! A51   A(13,15,31)           109.2099         estimate D2E/DX2                !
 ! A52   A(13,15,32)           111.4589         estimate D2E/DX2                !
 ! A53   A(17,15,31)           107.8071         estimate D2E/DX2                !
 ! A54   A(17,15,32)           110.2625         estimate D2E/DX2                !
 ! A55   A(31,15,32)           108.2397         estimate D2E/DX2                !
 ! A56   A(14,16,33)           110.0915         estimate D2E/DX2                !
 ! A57   A(14,16,34)           112.4572         estimate D2E/DX2                !
 ! A58   A(14,16,35)           112.4153         estimate D2E/DX2                !
 ! A59   A(33,16,34)           106.5415         estimate D2E/DX2                !
 ! A60   A(33,16,35)           106.6747         estimate D2E/DX2                !
 ! A61   A(34,16,35)           108.3307         estimate D2E/DX2                !
 ! A62   A(15,17,36)           110.4413         estimate D2E/DX2                !
 ! A63   A(15,17,37)           112.6134         estimate D2E/DX2                !
 ! A64   A(15,17,38)           111.3436         estimate D2E/DX2                !
 ! A65   A(36,17,37)           106.1028         estimate D2E/DX2                !
 ! A66   A(36,17,38)           107.4087         estimate D2E/DX2                !
 ! A67   A(37,17,38)           108.6656         estimate D2E/DX2                !
 ! D1    D(18,1,4,3)          -179.9977         estimate D2E/DX2                !
 ! D2    D(18,1,4,5)            -0.0036         estimate D2E/DX2                !
 ! D3    D(19,1,4,3)             0.0029         estimate D2E/DX2                !
 ! D4    D(19,1,4,5)           179.997          estimate D2E/DX2                !
 ! D5    D(7,2,3,4)              0.0206         estimate D2E/DX2                !
 ! D6    D(7,2,3,21)          -179.9782         estimate D2E/DX2                !
 ! D7    D(20,2,3,4)          -179.9785         estimate D2E/DX2                !
 ! D8    D(20,2,3,21)            0.0227         estimate D2E/DX2                !
 ! D9    D(3,2,7,6)             -0.0595         estimate D2E/DX2                !
 ! D10   D(3,2,7,8)            179.9753         estimate D2E/DX2                !
 ! D11   D(20,2,7,6)           179.9395         estimate D2E/DX2                !
 ! D12   D(20,2,7,8)            -0.0256         estimate D2E/DX2                !
 ! D13   D(2,3,4,1)           -179.9858         estimate D2E/DX2                !
 ! D14   D(2,3,4,5)              0.02           estimate D2E/DX2                !
 ! D15   D(21,3,4,1)             0.013          estimate D2E/DX2                !
 ! D16   D(21,3,4,5)          -179.9812         estimate D2E/DX2                !
 ! D17   D(1,4,5,6)            179.9855         estimate D2E/DX2                !
 ! D18   D(1,4,5,22)            -0.0069         estimate D2E/DX2                !
 ! D19   D(3,4,5,6)             -0.0203         estimate D2E/DX2                !
 ! D20   D(3,4,5,22)           179.9873         estimate D2E/DX2                !
 ! D21   D(4,5,6,7)             -0.0199         estimate D2E/DX2                !
 ! D22   D(4,5,6,23)           179.9986         estimate D2E/DX2                !
 ! D23   D(22,5,6,7)           179.9726         estimate D2E/DX2                !
 ! D24   D(22,5,6,23)           -0.009          estimate D2E/DX2                !
 ! D25   D(5,6,7,2)              0.0591         estimate D2E/DX2                !
 ! D26   D(5,6,7,8)           -179.9764         estimate D2E/DX2                !
 ! D27   D(23,6,7,2)          -179.9602         estimate D2E/DX2                !
 ! D28   D(23,6,7,8)             0.0042         estimate D2E/DX2                !
 ! D29   D(2,7,8,9)             -0.3687         estimate D2E/DX2                !
 ! D30   D(2,7,8,10)          -179.5897         estimate D2E/DX2                !
 ! D31   D(6,7,8,9)            179.6674         estimate D2E/DX2                !
 ! D32   D(6,7,8,10)             0.4464         estimate D2E/DX2                !
 ! D33   D(7,8,9,11)          -174.5838         estimate D2E/DX2                !
 ! D34   D(10,8,9,11)            4.6726         estimate D2E/DX2                !
 ! D35   D(8,9,11,12)          174.5929         estimate D2E/DX2                !
 ! D36   D(8,9,11,24)          -65.3842         estimate D2E/DX2                !
 ! D37   D(8,9,11,25)           54.9928         estimate D2E/DX2                !
 ! D38   D(9,11,12,13)         172.502          estimate D2E/DX2                !
 ! D39   D(9,11,12,26)         -63.811          estimate D2E/DX2                !
 ! D40   D(9,11,12,27)          53.2            estimate D2E/DX2                !
 ! D41   D(24,11,12,13)         52.7031         estimate D2E/DX2                !
 ! D42   D(24,11,12,26)        176.3902         estimate D2E/DX2                !
 ! D43   D(24,11,12,27)        -66.5988         estimate D2E/DX2                !
 ! D44   D(25,11,12,13)        -68.8793         estimate D2E/DX2                !
 ! D45   D(25,11,12,26)         54.8078         estimate D2E/DX2                !
 ! D46   D(25,11,12,27)        171.8188         estimate D2E/DX2                !
 ! D47   D(11,12,13,14)         54.3565         estimate D2E/DX2                !
 ! D48   D(11,12,13,15)       -176.537          estimate D2E/DX2                !
 ! D49   D(11,12,13,28)        -61.4957         estimate D2E/DX2                !
 ! D50   D(26,12,13,14)        -69.2604         estimate D2E/DX2                !
 ! D51   D(26,12,13,15)         59.8461         estimate D2E/DX2                !
 ! D52   D(26,12,13,28)        174.8874         estimate D2E/DX2                !
 ! D53   D(27,12,13,14)        172.103          estimate D2E/DX2                !
 ! D54   D(27,12,13,15)        -58.7906         estimate D2E/DX2                !
 ! D55   D(27,12,13,28)         56.2508         estimate D2E/DX2                !
 ! D56   D(12,13,14,16)         60.5358         estimate D2E/DX2                !
 ! D57   D(12,13,14,29)       -177.8054         estimate D2E/DX2                !
 ! D58   D(12,13,14,30)        -62.937          estimate D2E/DX2                !
 ! D59   D(15,13,14,16)        -69.0769         estimate D2E/DX2                !
 ! D60   D(15,13,14,29)         52.5819         estimate D2E/DX2                !
 ! D61   D(15,13,14,30)        167.4503         estimate D2E/DX2                !
 ! D62   D(28,13,14,16)        176.6154         estimate D2E/DX2                !
 ! D63   D(28,13,14,29)        -61.7257         estimate D2E/DX2                !
 ! D64   D(28,13,14,30)         53.1427         estimate D2E/DX2                !
 ! D65   D(12,13,15,17)         64.379          estimate D2E/DX2                !
 ! D66   D(12,13,15,31)       -177.6267         estimate D2E/DX2                !
 ! D67   D(12,13,15,32)        -58.0823         estimate D2E/DX2                !
 ! D68   D(14,13,15,17)       -164.624          estimate D2E/DX2                !
 ! D69   D(14,13,15,31)        -46.6297         estimate D2E/DX2                !
 ! D70   D(14,13,15,32)         72.9147         estimate D2E/DX2                !
 ! D71   D(28,13,15,17)        -50.6138         estimate D2E/DX2                !
 ! D72   D(28,13,15,31)         67.3805         estimate D2E/DX2                !
 ! D73   D(28,13,15,32)       -173.0751         estimate D2E/DX2                !
 ! D74   D(13,14,16,33)        178.962          estimate D2E/DX2                !
 ! D75   D(13,14,16,34)        -62.4032         estimate D2E/DX2                !
 ! D76   D(13,14,16,35)         60.1865         estimate D2E/DX2                !
 ! D77   D(29,14,16,33)         57.5612         estimate D2E/DX2                !
 ! D78   D(29,14,16,34)        176.196          estimate D2E/DX2                !
 ! D79   D(29,14,16,35)        -61.2143         estimate D2E/DX2                !
 ! D80   D(30,14,16,33)        -57.7186         estimate D2E/DX2                !
 ! D81   D(30,14,16,34)         60.9163         estimate D2E/DX2                !
 ! D82   D(30,14,16,35)       -176.4941         estimate D2E/DX2                !
 ! D83   D(13,15,17,36)        166.8187         estimate D2E/DX2                !
 ! D84   D(13,15,17,37)        -74.7632         estimate D2E/DX2                !
 ! D85   D(13,15,17,38)         47.5802         estimate D2E/DX2                !
 ! D86   D(31,15,17,36)         47.9569         estimate D2E/DX2                !
 ! D87   D(31,15,17,37)        166.375          estimate D2E/DX2                !
 ! D88   D(31,15,17,38)        -71.2816         estimate D2E/DX2                !
 ! D89   D(32,15,17,36)        -70.0129         estimate D2E/DX2                !
 ! D90   D(32,15,17,37)         48.4052         estimate D2E/DX2                !
 ! D91   D(32,15,17,38)        170.7486         estimate D2E/DX2                !
 --------------------------------------------------------------------------------
 Trust Radius=3.00D-01 FncErr=1.00D-07 GrdErr=1.00D-06
 Number of steps in this run=    206 maximum allowed number of steps=    228.
 GradGradGradGradGradGradGradGradGradGradGradGradGradGradGradGradGradGrad

                          Input orientation:                          
 ---------------------------------------------------------------------
 Center     Atomic      Atomic             Coordinates (Angstroms)
 Number     Number       Type             X           Y           Z
 ---------------------------------------------------------------------
      1          7           0        1.366447   -5.316239    1.645493
      2          6           0        0.838148   -1.973320    0.816720
      3          6           0        1.463342   -3.144850    1.016002
      4          6           0        0.777042   -4.210023    1.456841
      5          6           0       -0.537932   -4.092512    1.695557
      6          6           0       -1.160290   -2.919346    1.495237
      7          6           0       -0.481310   -1.842584    1.053526
      8          6           0       -1.096536   -0.639981    0.843995
      9          8           0       -0.388501    0.458801    0.397375
     10          8           0       -2.284166   -0.483789    1.054190
     11          6           0       -1.065496    1.693411    0.315660
     12          6           0       -0.080896    2.799886   -0.067328
     13          7           0       -0.820979    4.102618   -0.340858
     14          6           0       -1.730929    4.575519    0.780493
     15          6           0        0.107872    5.211305   -0.807293
     16          6           0       -0.956080    4.832995    2.078999
     17          6           0        0.726059    4.835578   -2.160707
     18          1           0        0.828012   -6.148366    1.990317
     19          1           0        2.395085   -5.405278    1.457898
     20          1           0        1.447081   -1.128534    0.453328
     21          1           0        2.545551   -3.222552    0.813874
     22          1           0       -1.118115   -4.958517    2.058332
     23          1           0       -2.241645   -2.880934    1.707839
     24          1           0       -1.864742    1.621524   -0.459342
     25          1           0       -1.506308    1.912907    1.315321
     26          1           0        0.691682    2.936570    0.722994
     27          1           0        0.441776    2.465869   -0.992463
     28          1           0       -1.457372    3.903842   -1.149365
     29          1           0       -2.250443    5.509462    0.462209
     30          1           0       -2.545551    3.837093    0.952469
     31          1           0       -0.481284    6.148366   -0.949560
     32          1           0        0.908847    5.413154   -0.060083
     33          1           0       -1.649195    5.195572    2.872988
     34          1           0       -0.473920    3.912501    2.475706
     35          1           0       -0.173072    5.613696    1.957986
     36          1           0        1.214272    5.723304   -2.625578
     37          1           0        1.518836    4.060379   -2.068487
     38          1           0       -0.048813    4.470178   -2.872988
 ---------------------------------------------------------------------
                    Distance matrix (angstroms):
                    1          2          3          4          5
     1  N    0.000000
     2  C    3.484404   0.000000
     3  C    2.262869   1.342782   0.000000
     4  C    1.267557   2.327301   1.341619   0.000000
     5  C    2.264216   2.675243   2.316237   1.341622   0.000000
     6  C    3.485982   2.312813   2.676558   2.328213   1.343047
     7  C    3.978808   1.346900   2.340721   2.711251   2.340424
     8  C    5.345659   2.349796   3.585656   4.078121   3.599606
     9  O    6.163500   2.756035   4.098576   4.927360   4.735193
    10  O    6.085161   3.467555   4.596359   4.839209   4.059996
    11  C    7.537771   4.161711   5.504023   6.288702   5.971545
    12  C    8.420216   4.940615   6.236839   7.224816   7.128941
    13  N    9.871438   6.403883   7.719131   8.653635   8.449098
    14  C   10.401386   7.034825   8.358405   9.161502   8.797462
    15  C   10.882525   7.401997   8.659505   9.712647   9.656207
    16  C   10.420605   7.151121   8.404140   9.228595   8.943520
    17  C   10.860785   7.432276   8.621038   9.742287   9.807101
    18  H    1.049405   4.336870   3.220876   2.011061   2.485804
    19  H    1.049388   3.822760   2.484543   2.011641   3.222177
    20  H    4.354840   1.102958   2.093417   3.309315   3.777377
    21  H    2.542715   2.115612   1.103662   2.125119   3.322960
    22  H    2.543904   3.778884   3.322613   2.124536   1.103713
    23  H    4.353496   3.332114   3.778256   3.307862   2.090624
    24  H    7.937472   4.675131   5.997592   6.682643   6.249338
    25  H    7.786032   4.565943   5.872761   6.536359   6.094866
    26  H    8.331577   4.912968   6.137180   7.184679   7.201793
    27  H    8.268920   4.810057   6.046296   7.118920   7.155253
    28  H   10.039675   6.608777   7.931169   8.810205   8.537015
    29  H   11.475097   8.102907   9.433769  10.228555   9.831162
    30  H    9.978351   6.725232   8.051260   8.720670   8.213486
    31  H   11.898974   8.415606   9.695817  10.708425  10.577118
    32  H   10.873742   7.438668   8.643197   9.742893   9.774105
    33  H   11.004500   7.861814   9.093895   9.816176   9.428136
    34  H    9.447002   6.254330   7.462568   8.281207   8.043194
    35  H   11.042248   7.738725   8.959761   9.882273   9.716608
    36  H   11.837935   8.439722   9.589958  10.748409  10.867045
    37  H   10.086517   6.722595   7.837887   9.020961   9.212380
    38  H   10.871688   7.477922   8.683289   9.735263   9.717536
                    6          7          8          9         10
     6  C    0.000000
     7  C    1.347419   0.000000
     8  C    2.371431   1.366989   0.000000
     9  O    3.634947   2.394895   1.381342   0.000000
    10  O    2.718374   2.257568   1.216159   2.216625   0.000000
    11  C    4.762133   3.659096   2.392660   1.410412   2.602073
    12  C    6.026302   4.792616   3.700638   2.406501   4.110319
    13  N    7.265972   6.115972   4.896126   3.742917   5.012206
    14  C    7.550463   6.544321   5.254325   4.346983   5.096820
    15  C    8.545020   7.318957   6.197975   4.927870   6.451439
    16  C    7.776971   6.770551   5.612346   4.720549   5.575145
    17  C    8.778558   7.509120   6.506292   5.190588   6.905989
    18  H    3.824267   4.596919   5.946448   6.904493   6.530652
    19  H    4.338426   4.596733   5.939390   6.577270   6.802898
    20  H    3.330310   2.142148   2.619407   2.427370   3.833919
    21  H    3.780138   3.335211   4.464905   4.725938   5.557404
    22  H    2.115910   3.335295   4.486071   5.713007   4.731931
    23  H    1.102726   2.145944   2.660709   4.037981   2.485029
    24  H    4.993609   4.025257   2.720888   2.065230   2.626602
    25  H    4.847965   3.901650   2.628174   2.050986   2.533260
    26  H    6.190146   4.932086   4.000510   2.722529   4.545791
    27  H    6.144575   4.858078   3.922408   2.578630   4.507774
    28  H    7.323802   6.231118   4.974939   3.924691   4.979011
    29  H    8.561564   7.584990   6.268406   5.383327   6.022511
    30  H    6.918310   6.044008   4.706974   4.046462   4.329976
    31  H    9.416023   8.238182   7.048193   5.847563   7.158972
    32  H    8.725303   7.471171   6.440447   5.141789   6.797858
    33  H    8.245552   7.362747   6.202896   5.491358   5.997196
    34  H    6.935889   5.928208   4.875984   4.031724   4.962365
    35  H    8.602415   7.517258   6.418897   5.390256   6.515588
    36  H    9.864840   8.582160   7.607179   6.278704   8.019212
    37  H    8.282174   6.970834   6.116871   4.763378   6.698015
    38  H    8.655740   7.446847   6.405264   5.186695   6.705320
                   11         12         13         14         15
    11  C    0.000000
    12  C    1.529838   0.000000
    13  N    2.509000   1.523040   0.000000
    14  C    2.994231   2.567933   1.519563   0.000000
    15  C    3.874712   2.529451   1.519708   2.511270   0.000000
    16  C    3.602544   3.083212   2.531286   1.533885   3.099322
    17  C    4.383523   3.029431   2.498481   3.841234   1.534619
    18  H    8.239133   9.226659  10.641251  11.091148  11.721235
    19  H    7.979456   8.705258  10.196994  10.821237  11.093884
    20  H    3.780922   4.247150   5.756716   6.537813   6.601228
    21  H    6.120014   6.629065   8.144019   8.893779   8.927508
    22  H    6.876614   8.110923   9.378090   9.638789  10.636735
    23  H    4.924035   6.331806   7.415217   7.531234   8.793773
    24  H    1.115612   2.173550   2.694310   3.206428   4.110815
    25  H    1.114368   2.174914   2.829742   2.725068   4.241521
    26  H    2.190671   1.113628   2.186228   2.925492   2.803040
    27  H    2.140034   1.113835   2.167507   3.509223   2.771858
    28  H    2.680647   2.069833   1.047946   2.061634   2.067961
    29  H    3.998477   3.511288   2.160438   1.115100   2.694844
    30  H    2.681690   2.861872   2.171945   1.112860   3.467834
    31  H    4.667838   3.485823   2.161249   2.651140   1.115987
    32  H    4.227967   2.794425   2.188296   2.894239   1.113834
    33  H    4.375587   4.104185   3.494180   2.183960   4.078235
    34  H    3.152796   2.803462   2.844227   2.212106   3.578192
    35  H    4.343074   3.468129   2.826274   2.211610   2.808490
    36  H    5.485277   4.094933   3.462487   4.646820   2.189161
    37  H    4.238569   2.855280   2.908818   4.352359   2.214963
    38  H    4.348742   3.265369   2.672643   4.023498   2.200208
                   16         17         18         19         20
    16  C    0.000000
    17  C    4.561218   0.000000
    18  H   11.125697  11.742590   0.000000
    19  H   10.790658  10.988862   1.814213   0.000000
    20  H    6.630069   6.551617   5.286236   4.494264   0.000000
    21  H    8.874334   8.780213   3.590870   2.280724   2.391974
    22  H    9.792874  10.822457   2.282055   3.592032   4.881090
    23  H    7.829121   9.127841   4.492071   5.285267   4.272166
    24  H    4.193136   4.465091   8.580381   8.437884   4.400450
    25  H    3.068040   5.060458   8.419548   8.294397   4.326188
    26  H    2.854872   3.452991   9.173917   8.545648   4.143479
    27  H    4.122034   2.657279   9.124210   8.471992   4.002585
    28  H    3.396609   2.580371  10.776246  10.406679   6.027378
    29  H    2.178760   4.024099  12.153886  11.903944   7.598339
    30  H    2.187992   4.625178  10.590913  10.492224   6.391221
    31  H    3.335836   2.155914  12.710891  12.147265   7.657673
    32  H    2.896586   2.186236  11.742207  11.025046   6.583841
    33  H    1.114580   5.577590  11.644767  11.434015   7.445535
    34  H    1.112279   4.877330  10.156361   9.802455   5.761275
    35  H    1.112313   4.286903  11.804631  11.325339   7.095531
    36  H    5.257007   1.114681  12.743321  11.912784   7.515421
    37  H    4.891195   1.112625  11.007706  10.139126   5.769707
    38  H    5.047469   1.114131  11.712132  11.056846   6.681890
                   21         22         23         24         25
    21  H    0.000000
    22  H    4.240837   0.000000
    23  H    4.881918   2.387785   0.000000
    24  H    6.673592   7.084707   5.011073   0.000000
    25  H    6.560636   6.922371   4.865768   1.833796   0.000000
    26  H    6.432719   8.209196   6.589209   3.108467   2.495976
    27  H    6.328259   8.176926   6.563588   2.513396   3.070287
    28  H    8.406140   9.431109   7.403505   2.418896   3.168737
    29  H    9.968616  10.649336   8.482359   4.014235   3.770510
    30  H    8.705005   8.979046   6.767188   2.713938   2.216795
    31  H   10.004276  11.524575   9.575432   4.758841   4.911158
    32  H    8.832781  10.778117   9.046715   4.714728   4.469501
    33  H    9.628118  10.200551   8.181596   4.891288   3.636294
    34  H    7.923880   8.904165   7.061532   3.974603   2.531935
    35  H    9.315534  10.614842   8.746445   4.964137   3.985772
    36  H    9.676284  11.894551  10.234978   5.567540   6.119752
    37  H    7.899572  10.262779   8.751210   4.470566   5.021284
    38  H    8.916377  10.693999   8.934838   4.151881   5.119166
                   26         27         28         29         30
    26  H    0.000000
    27  H    1.796331   0.000000
    28  H    3.009946   2.387289   0.000000
    29  H    3.917127   4.315967   2.409180   0.000000
    30  H    3.367978   3.819311   2.367762   1.767558   0.000000
    31  H    3.806431   3.796665   2.455719   2.351853   3.636055
    32  H    2.606499   3.126336   3.010573   3.203619   3.929643
    33  H    3.899393   5.173505   4.229029   2.504372   2.517402
    34  H    2.320144   3.867743   3.756114   3.124178   2.572468
    35  H    3.072460   4.357981   3.772089   2.561969   3.129862
    36  H    4.387701   3.724875   3.553495   4.645902   5.522362
    37  H    3.120817   2.204620   3.118830   4.765682   5.069051
    38  H    3.978866   2.791829   2.296879   4.129264   4.611791
                   31         32         33         34         35
    31  H    0.000000
    32  H    1.806701   0.000000
    33  H    4.108979   3.897926   0.000000
    34  H    4.090427   3.254878   1.784762   0.000000
    35  H    2.972321   2.298558   1.786336   1.803499   0.000000
    36  H    2.421699   2.602161   6.221911   5.670282   4.790177
    37  H    3.100350   2.497153   5.978567   4.964135   4.635497
    38  H    2.589000   3.117491   6.008632   5.394464   4.966023
                   36         37         38
    36  H    0.000000
    37  H    1.780008   0.000000
    38  H    1.796363   1.809055   0.000000
 Stoichiometry    C13H21N2O2(1+)
 Framework group  C1[X(C13H21N2O2)]
 Deg. of freedom   108
 Full point group                 C1      NOp   1
 Largest Abelian subgroup         C1      NOp   1
 Largest concise Abelian subgroup C1      NOp   1
                         Standard orientation:                         
 ---------------------------------------------------------------------
 Center     Atomic      Atomic             Coordinates (Angstroms)
 Number     Number       Type             X           Y           Z
 ---------------------------------------------------------------------
      1          7           0        6.017545    0.939645    0.549363
      2          6           0        2.543221    0.895400    0.288241
      3          6           0        3.787795    1.325375    0.551337
      4          6           0        4.842362    0.534682    0.301069
      5          6           0        4.640576   -0.687508   -0.214183
      6          6           0        3.394493   -1.114595   -0.476193
      7          6           0        2.327705   -0.329713   -0.228275
      8          6           0        1.051849   -0.746390   -0.487565
      9          8           0       -0.034477    0.064726   -0.222819
     10          8           0        0.819664   -1.848317   -0.946792
     11          6           0       -1.324100   -0.475837   -0.407013
     12          6           0       -2.378574    0.527279    0.064416
     13          7           0       -3.776629    0.041472   -0.294872
     14          6           0       -4.121899   -1.353386    0.199326
     15          6           0       -4.854288    1.045693    0.078897
     16          6           0       -4.055717   -1.453687    1.728496
     17          6           0       -4.676116    2.328756   -0.743938
     18          1           0        6.841239    0.319812    0.352926
     19          1           0        6.172413    1.896122    0.952331
     20          1           0        1.710742    1.583581    0.511628
     21          1           0        3.934229    2.333990    0.974803
     22          1           0        5.496552   -1.351140   -0.426505
     23          1           0        3.288495   -2.127521   -0.898980
     24          1           0       -1.477140   -0.695643   -1.489997
     25          1           0       -1.397402   -1.409178    0.197403
     26          1           0       -2.288700    0.714947    1.158432
     27          1           0       -2.171342    1.488667   -0.458475
     28          1           0       -3.795589   -0.022169   -1.340712
     29          1           0       -5.145718   -1.623521   -0.150346
     30          1           0       -3.449381   -2.105537   -0.270192
     31          1           0       -5.855485    0.618611   -0.167346
     32          1           0       -4.833277    1.279644    1.167681
     33          1           0       -4.332170   -2.482235    2.057058
     34          1           0       -3.034239   -1.258973    2.123253
     35          1           0       -4.763272   -0.757371    2.230243
     36          1           0       -5.581417    2.973704   -0.660348
     37          1           0       -3.822124    2.948353   -0.390764
     38          1           0       -4.528163    2.100355   -1.824323
 ---------------------------------------------------------------------
 Rotational constants (GHZ):      1.1736307      0.1554780      0.1456899
 Standard basis: 6-311++G(d,p) (5D, 7F)
 There are   538 symmetry adapted cartesian basis functions of A   symmetry.
 There are   521 symmetry adapted basis functions of A   symmetry.
   521 basis functions,   801 primitive gaussians,   538 cartesian basis functions
    64 alpha electrons       64 beta electrons
       nuclear repulsion energy      1196.4623108076 Hartrees.
 NAtoms=   38 NActive=   38 NUniq=   38 SFac= 1.00D+00 NAtFMM=   60 NAOKFM=F Big=F
 Integral buffers will be    131072 words long.
 Raffenetti 2 integral format.
 Two-electron integral symmetry is turned on.
 One-electron integrals computed using PRISM.
 NBasis=   521 RedAO= T EigKep=  2.31D-06  NBF=   521
 NBsUse=   518 1.00D-06 EigRej=  7.57D-07 NBFU=   518
 ExpMin= 3.60D-02 ExpMax= 8.59D+03 ExpMxC= 1.30D+03 IAcc=3 IRadAn=         5 AccDes= 0.00D+00
 Harris functional with IExCor=  402 and IRadAn=       5 diagonalized for initial guess.
 HarFok:  IExCor=  402 AccDes= 0.00D+00 IRadAn=         5 IDoV= 1 UseB2=F ITyADJ=14
 ICtDFT=  3500011 ScaDFX=  1.000000  1.000000  1.000000  1.000000
 FoFCou: FMM=F IPFlag=           0 FMFlag=      100000 FMFlg1=           0
         NFxFlg=           0 DoJE=T BraDBF=F KetDBF=T FulRan=T
         wScrn=  0.000000 ICntrl=     500 IOpCl=  0 I1Cent=   200000004 NGrid=           0
         NMat0=    1 NMatS0=      1 NMatT0=    0 NMatD0=    1 NMtDS0=    0 NMtDT0=    0
 Petite list used in FoFCou.
 Requested convergence on RMS density matrix=1.00D-08 within 128 cycles.
 Requested convergence on MAX density matrix=1.00D-06.
 Requested convergence on             energy=1.00D-06.
 No special actions if energy rises.
 SCF Done:  E(RB3LYP) =  -767.936582806     A.U. after   15 cycles
            NFock= 15  Conv=0.80D-08     -V/T= 2.0034

 **********************************************************************

            Population analysis using the SCF density.

 **********************************************************************

 Orbital symmetries:
       Occupied  (A) (A) (A) (A) (A) (A) (A) (A) (A) (A) (A) (A)
                 (A) (A) (A) (A) (A) (A) (A) (A) (A) (A) (A) (A)
                 (A) (A) (A) (A) (A) (A) (A) (A) (A) (A) (A) (A)
                 (A) (A) (A) (A) (A) (A) (A) (A) (A) (A) (A) (A)
                 (A) (A) (A) (A) (A) (A) (A) (A) (A) (A) (A) (A)
                 (A) (A) (A) (A)
       Virtual   (A) (A) (A) (A) (A) (A) (A) (A) (A) (A) (A) (A)
                 (A) (A) (A) (A) (A) (A) (A) (A) (A) (A) (A) (A)
                 (A) (A) (A) (A) (A) (A) (A) (A) (A) (A) (A) (A)
                 (A) (A) (A) (A) (A) (A) (A) (A) (A) (A) (A) (A)
                 (A) (A) (A) (A) (A) (A) (A) (A) (A) (A) (A) (A)
                 (A) (A) (A) (A) (A) (A) (A) (A) (A) (A) (A) (A)
                 (A) (A) (A) (A) (A) (A) (A) (A) (A) (A) (A) (A)
                 (A) (A) (A) (A) (A) (A) (A) (A) (A) (A) (A) (A)
                 (A) (A) (A) (A) (A) (A) (A) (A) (A) (A) (A) (A)
                 (A) (A) (A) (A) (A) (A) (A) (A) (A) (A) (A) (A)
                 (A) (A) (A) (A) (A) (A) (A) (A) (A) (A) (A) (A)
                 (A) (A) (A) (A) (A) (A) (A) (A) (A) (A) (A) (A)
                 (A) (A) (A) (A) (A) (A) (A) (A) (A) (A) (A) (A)
                 (A) (A) (A) (A) (A) (A) (A) (A) (A) (A) (A) (A)
                 (A) (A) (A) (A) (A) (A) (A) (A) (A) (A) (A) (A)
                 (A) (A) (A) (A) (A) (A) (A) (A) (A) (A) (A) (A)
                 (A) (A) (A) (A) (A) (A) (A) (A) (A) (A) (A) (A)
                 (A) (A) (A) (A) (A) (A) (A) (A) (A) (A) (A) (A)
                 (A) (A) (A) (A) (A) (A) (A) (A) (A) (A) (A) (A)
                 (A) (A) (A) (A) (A) (A) (A) (A) (A) (A) (A) (A)
                 (A) (A) (A) (A) (A) (A) (A) (A) (A) (A) (A) (A)
                 (A) (A) (A) (A) (A) (A) (A) (A) (A) (A) (A) (A)
                 (A) (A) (A) (A) (A) (A) (A) (A) (A) (A) (A) (A)
                 (A) (A) (A) (A) (A) (A) (A) (A) (A) (A) (A) (A)
                 (A) (A) (A) (A) (A) (A) (A) (A) (A) (A) (A) (A)
                 (A) (A) (A) (A) (A) (A) (A) (A) (A) (A) (A) (A)
                 (A) (A) (A) (A) (A) (A) (A) (A) (A) (A) (A) (A)
                 (A) (A) (A) (A) (A) (A) (A) (A) (A) (A) (A) (A)
                 (A) (A) (A) (A) (A) (A) (A) (A) (A) (A) (A) (A)
                 (A) (A) (A) (A) (A) (A) (A) (A) (A) (A) (A) (A)
                 (A) (A) (A) (A) (A) (A) (A) (A) (A) (A) (A) (A)
                 (A) (A) (A) (A) (A) (A) (A) (A) (A) (A) (A) (A)
                 (A) (A) (A) (A) (A) (A) (A) (A) (A) (A) (A) (A)
                 (A) (A) (A) (A) (A) (A) (A) (A) (A) (A) (A) (A)
                 (A) (A) (A) (A) (A) (A) (A) (A) (A) (A) (A) (A)
                 (A) (A) (A) (A) (A) (A) (A) (A) (A) (A) (A) (A)
                 (A) (A) (A) (A) (A) (A) (A) (A) (A) (A) (A) (A)
                 (A) (A) (A) (A) (A) (A) (A) (A) (A) (A)
 The electronic state is 1-A.
 Alpha  occ. eigenvalues --  -19.26971 -19.18232 -14.60568 -14.42215 -10.39387
 Alpha  occ. eigenvalues --  -10.39059 -10.38801 -10.37936 -10.37399 -10.32910
 Alpha  occ. eigenvalues --  -10.32524 -10.29150 -10.25715 -10.25449 -10.24386
 Alpha  occ. eigenvalues --  -10.24219 -10.24213  -1.20813  -1.17088  -1.10695
 Alpha  occ. eigenvalues --   -1.05580  -0.96360  -0.94444  -0.93667  -0.89352
 Alpha  occ. eigenvalues --   -0.85927  -0.84940  -0.81265  -0.80139  -0.77070
 Alpha  occ. eigenvalues --   -0.73472  -0.72449  -0.71036  -0.69146  -0.66333
 Alpha  occ. eigenvalues --   -0.65607  -0.64057  -0.63410  -0.62443  -0.61257
 Alpha  occ. eigenvalues --   -0.60602  -0.59425  -0.56973  -0.55949  -0.55078
 Alpha  occ. eigenvalues --   -0.54261  -0.54140  -0.53564  -0.53043  -0.52420
 Alpha  occ. eigenvalues --   -0.52162  -0.51880  -0.51499  -0.50754  -0.50692
 Alpha  occ. eigenvalues --   -0.49389  -0.47650  -0.46433  -0.42955  -0.42234
 Alpha  occ. eigenvalues --   -0.40406  -0.36312  -0.35085  -0.29954
 Alpha virt. eigenvalues --   -0.15444  -0.12749  -0.12384  -0.11493  -0.11288
 Alpha virt. eigenvalues --   -0.09798  -0.09074  -0.09029  -0.08428  -0.08195
 Alpha virt. eigenvalues --   -0.07752  -0.07559  -0.07047  -0.06167  -0.05643
 Alpha virt. eigenvalues --   -0.05349  -0.05210  -0.04649  -0.04354  -0.04278
 Alpha virt. eigenvalues --   -0.03768  -0.03108  -0.03007  -0.02842  -0.02341
 Alpha virt. eigenvalues --   -0.02063  -0.01499  -0.01105  -0.00583  -0.00259
 Alpha virt. eigenvalues --    0.00078   0.00169   0.00335   0.00733   0.00970
 Alpha virt. eigenvalues --    0.01187   0.01670   0.01873   0.02166   0.02330
 Alpha virt. eigenvalues --    0.02410   0.02746   0.03157   0.03466   0.03601
 Alpha virt. eigenvalues --    0.03906   0.04367   0.04617   0.04769   0.04941
 Alpha virt. eigenvalues --    0.05291   0.05342   0.05744   0.06075   0.06311
 Alpha virt. eigenvalues --    0.06404   0.06439   0.06658   0.06912   0.07197
 Alpha virt. eigenvalues --    0.07475   0.07531   0.08106   0.08332   0.08814
 Alpha virt. eigenvalues --    0.08842   0.09237   0.09427   0.09512   0.09893
 Alpha virt. eigenvalues --    0.09969   0.10568   0.10824   0.11492   0.11805
 Alpha virt. eigenvalues --    0.11973   0.12176   0.12403   0.12842   0.13409
 Alpha virt. eigenvalues --    0.13641   0.14067   0.14924   0.15325   0.15687
 Alpha virt. eigenvalues --    0.15911   0.16329   0.16727   0.17029   0.17472
 Alpha virt. eigenvalues --    0.17810   0.18129   0.18530   0.18975   0.19023
 Alpha virt. eigenvalues --    0.19310   0.19882   0.20434   0.20669   0.21370
 Alpha virt. eigenvalues --    0.21651   0.22171   0.22555   0.23285   0.23559
 Alpha virt. eigenvalues --    0.24118   0.24578   0.24784   0.25092   0.26123
 Alpha virt. eigenvalues --    0.26639   0.27077   0.27647   0.28305   0.29007
 Alpha virt. eigenvalues --    0.29567   0.30508   0.31281   0.31506   0.31780
 Alpha virt. eigenvalues --    0.32393   0.32947   0.34011   0.35349   0.35980
 Alpha virt. eigenvalues --    0.36312   0.37479   0.38233   0.39092   0.39641
 Alpha virt. eigenvalues --    0.41082   0.42049   0.42276   0.42926   0.43974
 Alpha virt. eigenvalues --    0.45145   0.45887   0.46525   0.46697   0.47453
 Alpha virt. eigenvalues --    0.48193   0.48365   0.49025   0.49061   0.49413
 Alpha virt. eigenvalues --    0.50465   0.50943   0.51411   0.51881   0.52463
 Alpha virt. eigenvalues --    0.52559   0.53114   0.53257   0.54100   0.54635
 Alpha virt. eigenvalues --    0.55335   0.55722   0.56034   0.56331   0.56680
 Alpha virt. eigenvalues --    0.57585   0.57910   0.58221   0.58708   0.59144
 Alpha virt. eigenvalues --    0.60339   0.60871   0.61853   0.62218   0.63136
 Alpha virt. eigenvalues --    0.63357   0.63904   0.64419   0.65141   0.65360
 Alpha virt. eigenvalues --    0.66960   0.67780   0.68885   0.70353   0.70748
 Alpha virt. eigenvalues --    0.71447   0.72628   0.73459   0.74469   0.75995
 Alpha virt. eigenvalues --    0.77222   0.77480   0.79471   0.80591   0.81159
 Alpha virt. eigenvalues --    0.81519   0.82328   0.82679   0.83228   0.84411
 Alpha virt. eigenvalues --    0.86692   0.87046   0.88010   0.88523   0.90642
 Alpha virt. eigenvalues --    0.91719   0.92698   0.93011   0.93395   0.94908
 Alpha virt. eigenvalues --    0.96341   0.98262   0.99060   0.99769   1.00430
 Alpha virt. eigenvalues --    1.00824   1.01584   1.01867   1.03254   1.05445
 Alpha virt. eigenvalues --    1.07124   1.08247   1.10604   1.10881   1.12099
 Alpha virt. eigenvalues --    1.12316   1.14086   1.15288   1.16942   1.17892
 Alpha virt. eigenvalues --    1.19916   1.21250   1.22006   1.25576   1.26674
 Alpha virt. eigenvalues --    1.27583   1.30008   1.30539   1.31762   1.32261
 Alpha virt. eigenvalues --    1.35071   1.36957   1.37932   1.38852   1.39458
 Alpha virt. eigenvalues --    1.40241   1.40832   1.42120   1.42624   1.43242
 Alpha virt. eigenvalues --    1.44145   1.45329   1.45756   1.46093   1.46549
 Alpha virt. eigenvalues --    1.47675   1.48427   1.48889   1.49358   1.49710
 Alpha virt. eigenvalues --    1.50337   1.51411   1.52171   1.52239   1.52613
 Alpha virt. eigenvalues --    1.53350   1.53531   1.54316   1.55176   1.56605
 Alpha virt. eigenvalues --    1.57747   1.59951   1.60055   1.60464   1.61755
 Alpha virt. eigenvalues --    1.62916   1.63265   1.64400   1.65707   1.67003
 Alpha virt. eigenvalues --    1.68176   1.68540   1.68665   1.70427   1.71780
 Alpha virt. eigenvalues --    1.73174   1.76149   1.76746   1.78415   1.81149
 Alpha virt. eigenvalues --    1.82499   1.84396   1.85288   1.85912   1.86610
 Alpha virt. eigenvalues --    1.86924   1.88382   1.88988   1.89129   1.89792
 Alpha virt. eigenvalues --    1.90203   1.91188   1.92225   1.94424   1.96036
 Alpha virt. eigenvalues --    1.96907   1.98068   2.00009   2.00483   2.01466
 Alpha virt. eigenvalues --    2.01950   2.03314   2.04549   2.05115   2.08020
 Alpha virt. eigenvalues --    2.09959   2.10652   2.12242   2.12600   2.15409
 Alpha virt. eigenvalues --    2.17392   2.18072   2.18789   2.19929   2.22600
 Alpha virt. eigenvalues --    2.22940   2.24550   2.26105   2.27383   2.28707
 Alpha virt. eigenvalues --    2.31527   2.33262   2.34870   2.35801   2.36980
 Alpha virt. eigenvalues --    2.37901   2.38609   2.40050   2.40263   2.41008
 Alpha virt. eigenvalues --    2.41484   2.42842   2.43553   2.46604   2.47961
 Alpha virt. eigenvalues --    2.48721   2.49492   2.50241   2.51330   2.51741
 Alpha virt. eigenvalues --    2.53828   2.56356   2.56763   2.57456   2.58918
 Alpha virt. eigenvalues --    2.59572   2.60500   2.60807   2.62663   2.64937
 Alpha virt. eigenvalues --    2.65278   2.66478   2.67153   2.67726   2.69171
 Alpha virt. eigenvalues --    2.69930   2.71943   2.73077   2.73491   2.73677
 Alpha virt. eigenvalues --    2.74605   2.76378   2.76958   2.78981   2.80284
 Alpha virt. eigenvalues --    2.80513   2.81697   2.84310   2.85920   2.87604
 Alpha virt. eigenvalues --    2.89694   2.90018   2.91069   2.93104   2.94075
 Alpha virt. eigenvalues --    2.95059   2.99291   3.00071   3.00513   3.02233
 Alpha virt. eigenvalues --    3.05722   3.08792   3.11290   3.12725   3.18824
 Alpha virt. eigenvalues --    3.21152   3.26507   3.29530   3.30857   3.33599
 Alpha virt. eigenvalues --    3.36142   3.37803   3.38216   3.44012   3.45609
 Alpha virt. eigenvalues --    3.47338   3.48239   3.54863   3.57644   3.58411
 Alpha virt. eigenvalues --    3.58584   3.59661   3.61979   3.62195   3.64073
 Alpha virt. eigenvalues --    3.65504   3.68618   3.71150   3.73898   3.80427
 Alpha virt. eigenvalues --    3.88789   3.90765   3.94783   3.98231   4.00998
 Alpha virt. eigenvalues --    4.03034   4.05903   4.11446   4.14589   4.36068
 Alpha virt. eigenvalues --    4.41618   4.53685   4.55685   4.60443   4.84940
 Alpha virt. eigenvalues --    4.94623   4.95117   4.99423   5.20139   5.29572
 Alpha virt. eigenvalues --    5.64778   5.81562  23.53404  23.64867  23.65473
 Alpha virt. eigenvalues --   23.67743  23.72637  23.77743  23.79619  23.90814
 Alpha virt. eigenvalues --   23.98413  24.06035  24.20755  24.21301  24.33234
 Alpha virt. eigenvalues --   35.28057  35.65198  49.83945  49.98079
          Condensed to atoms (all electrons):
               1          2          3          4          5          6
     1  N    6.746280   0.033845  -0.115234  -0.101278  -0.082958   0.106479
     2  C    0.033845   7.939735   0.548486  -1.880391  -0.550120  -0.597145
     3  C   -0.115234   0.548486   8.501922   1.113987  -1.213553  -0.398688
     4  C   -0.101278  -1.880391   1.113987   9.307943   0.017949  -1.560396
     5  C   -0.082958  -0.550120  -1.213553   0.017949   7.941500   0.985994
     6  C    0.106479  -0.597145  -0.398688  -1.560396   0.985994   7.500455
     7  C    0.020348   0.428522  -1.656867  -0.137667  -1.253780   0.062547
     8  C    0.016918  -0.368449  -0.803073  -0.343616   0.099516   0.245554
     9  O    0.000128   0.196184   0.097401   0.000319   0.004228  -0.058867
    10  O   -0.000135   0.089883   0.031587   0.037924   0.058880   0.028086
    11  C    0.001542  -0.003759  -0.044238  -0.100090  -0.073004  -0.422232
    12  C   -0.000038  -0.013983   0.067238   0.009236  -0.021508   0.024796
    13  N    0.000000  -0.003689   0.000133   0.000041  -0.000308  -0.006986
    14  C    0.000002   0.009334   0.001274  -0.000366  -0.001057  -0.010422
    15  C   -0.000001  -0.002014   0.000495   0.000198   0.000260   0.002603
    16  C   -0.000002   0.000552   0.001354   0.000414   0.000605   0.003927
    17  C    0.000000   0.001401   0.000189   0.000024  -0.000044  -0.001255
    18  H    0.364811  -0.017495   0.003445  -0.022596   0.001516   0.014425
    19  H    0.368808   0.015018   0.021212  -0.058207   0.007020  -0.012260
    20  H   -0.002472   0.390283  -0.109955  -0.001999   0.041073   0.029259
    21  H   -0.021845   0.130780   0.461263  -0.202649  -0.091302  -0.024177
    22  H   -0.020378   0.002849  -0.066301  -0.192100   0.548543   0.009044
    23  H   -0.003127   0.016652   0.040539   0.067698  -0.089637   0.331199
    24  H   -0.000019   0.001662  -0.003822  -0.000516   0.004094  -0.006985
    25  H   -0.000052   0.001116  -0.005540   0.000329   0.007836  -0.002826
    26  H   -0.000010  -0.008811  -0.001794   0.000322  -0.000504   0.001087
    27  H   -0.000002  -0.010806  -0.015296  -0.004105  -0.000659  -0.009446
    28  H    0.000001   0.001123   0.001073   0.000079  -0.000515  -0.001852
    29  H    0.000000   0.000794   0.000097   0.000011  -0.000007  -0.000207
    30  H    0.000001  -0.002811  -0.000886  -0.000180  -0.000047   0.000400
    31  H    0.000000  -0.000163   0.000037   0.000014  -0.000006   0.000062
    32  H    0.000000   0.000138  -0.000200  -0.000044   0.000024  -0.000108
    33  H    0.000000  -0.000110   0.000028   0.000022   0.000091   0.000398
    34  H    0.000005   0.001550   0.000195  -0.000045  -0.000408  -0.001459
    35  H    0.000000  -0.000126   0.000054  -0.000013  -0.000022   0.000055
    36  H    0.000000   0.000034   0.000017   0.000004   0.000006   0.000015
    37  H    0.000000   0.000670   0.001314   0.000222  -0.000126   0.000050
    38  H    0.000000  -0.000163  -0.000167  -0.000033   0.000029   0.000107
               7          8          9         10         11         12
     1  N    0.020348   0.016918   0.000128  -0.000135   0.001542  -0.000038
     2  C    0.428522  -0.368449   0.196184   0.089883  -0.003759  -0.013983
     3  C   -1.656867  -0.803073   0.097401   0.031587  -0.044238   0.067238
     4  C   -0.137667  -0.343616   0.000319   0.037924  -0.100090   0.009236
     5  C   -1.253780   0.099516   0.004228   0.058880  -0.073004  -0.021508
     6  C    0.062547   0.245554  -0.058867   0.028086  -0.422232   0.024796
     7  C    7.857895   0.441764  -0.320424  -0.245316   0.167944   0.126481
     8  C    0.441764   7.721239  -0.098622   0.353674  -1.432175   0.247571
     9  O   -0.320424  -0.098622   8.630212  -0.239609   0.301894  -0.392149
    10  O   -0.245316   0.353674  -0.239609   8.145917  -0.054823   0.109662
    11  C    0.167944  -1.432175   0.301894  -0.054823   9.630627  -3.399411
    12  C    0.126481   0.247571  -0.392149   0.109662  -3.399411  10.881692
    13  N   -0.000745  -0.039410   0.014746   0.000527   0.362187  -0.762668
    14  C    0.015152  -0.120077  -0.000559  -0.013382  -0.224575   0.451986
    15  C   -0.002767   0.040363   0.007202   0.001174   0.120583  -0.423689
    16  C   -0.008641   0.023946   0.005935   0.005376   0.332947  -0.597363
    17  C    0.000357  -0.023088   0.000019  -0.000260   0.042020  -0.011024
    18  H    0.006373  -0.003816  -0.000078   0.000006  -0.000205   0.000040
    19  H    0.002841   0.000412   0.000040   0.000074   0.000135  -0.000061
    20  H    0.002821  -0.032887   0.008516  -0.001005   0.010216   0.012738
    21  H    0.043077   0.005196   0.000671  -0.001048  -0.003619   0.000004
    22  H   -0.011133   0.020285   0.001890   0.001134   0.003996  -0.000715
    23  H    0.020941  -0.043891  -0.007843  -0.003114  -0.011582   0.007177
    24  H   -0.014328  -0.015643  -0.017422  -0.023221   0.589995  -0.313023
    25  H    0.001232  -0.033226   0.001176  -0.027362   0.299713   0.000958
    26  H   -0.000795   0.028976  -0.010140   0.003103   0.066904   0.130324
    27  H    0.019659  -0.028666  -0.008607  -0.002859  -0.067298   0.415563
    28  H    0.001179  -0.004193  -0.005529   0.002317   0.011586  -0.052382
    29  H    0.000602  -0.004504   0.002391  -0.000864  -0.041752   0.114822
    30  H    0.000108   0.017436  -0.004732   0.002626   0.006813  -0.011789
    31  H   -0.000091   0.003660  -0.000096   0.000157  -0.013333   0.036956
    32  H    0.000457  -0.004411   0.001061  -0.000254   0.032580  -0.066426
    33  H   -0.000403   0.002950   0.000581  -0.000009   0.014725  -0.028949
    34  H    0.001469  -0.009925  -0.003360  -0.001044  -0.053108   0.133592
    35  H    0.000082   0.002499  -0.000852   0.000173  -0.017946  -0.000939
    36  H   -0.000026  -0.000186   0.000303   0.000000   0.004759  -0.007762
    37  H   -0.000585   0.003042   0.000866   0.000198  -0.036101   0.083857
    38  H   -0.000208   0.000951  -0.000559  -0.000077   0.035151  -0.106749
              13         14         15         16         17         18
     1  N    0.000000   0.000002  -0.000001  -0.000002   0.000000   0.364811
     2  C   -0.003689   0.009334  -0.002014   0.000552   0.001401  -0.017495
     3  C    0.000133   0.001274   0.000495   0.001354   0.000189   0.003445
     4  C    0.000041  -0.000366   0.000198   0.000414   0.000024  -0.022596
     5  C   -0.000308  -0.001057   0.000260   0.000605  -0.000044   0.001516
     6  C   -0.006986  -0.010422   0.002603   0.003927  -0.001255   0.014425
     7  C   -0.000745   0.015152  -0.002767  -0.008641   0.000357   0.006373
     8  C   -0.039410  -0.120077   0.040363   0.023946  -0.023088  -0.003816
     9  O    0.014746  -0.000559   0.007202   0.005935   0.000019  -0.000078
    10  O    0.000527  -0.013382   0.001174   0.005376  -0.000260   0.000006
    11  C    0.362187  -0.224575   0.120583   0.332947   0.042020  -0.000205
    12  C   -0.762668   0.451986  -0.423689  -0.597363  -0.011024   0.000040
    13  N    7.037717  -0.367076   0.239341   0.266580  -0.106542   0.000001
    14  C   -0.367076   6.636336  -0.417451  -0.586949   0.085004  -0.000003
    15  C    0.239341  -0.417451   5.776949   0.167113  -0.059674   0.000000
    16  C    0.266580  -0.586949   0.167113   5.866814  -0.018488   0.000001
    17  C   -0.106542   0.085004  -0.059674  -0.018488   5.538556   0.000000
    18  H    0.000001  -0.000003   0.000000   0.000001   0.000000   0.398063
    19  H   -0.000003   0.000005  -0.000001  -0.000002   0.000000  -0.019632
    20  H   -0.006193   0.006020  -0.001878  -0.002958   0.000098  -0.000730
    21  H    0.000163  -0.000190   0.000070   0.000084  -0.000006   0.002263
    22  H    0.000013   0.000054  -0.000002  -0.000021   0.000002  -0.004213
    23  H   -0.000121  -0.000327  -0.000008   0.000181  -0.000019   0.001538
    24  H    0.095235  -0.114206   0.034076   0.030404  -0.006066  -0.000008
    25  H   -0.037116   0.089265  -0.008559  -0.045512   0.004161  -0.000009
    26  H    0.114674  -0.163682   0.045887   0.099771  -0.002368   0.000007
    27  H   -0.021759   0.072518  -0.049074  -0.029777   0.026065  -0.000003
    28  H    0.390606  -0.027835  -0.033742   0.007924   0.022101   0.000000
    29  H   -0.102820   0.536316  -0.052802  -0.142189   0.000796   0.000000
    30  H   -0.028249   0.396121   0.014270  -0.022268  -0.004811   0.000000
    31  H   -0.035582  -0.037631   0.432759   0.000290  -0.074473   0.000000
    32  H    0.014793   0.006922   0.390288   0.016418  -0.010705   0.000000
    33  H    0.023157  -0.093716   0.009881   0.460038  -0.000788   0.000000
    34  H   -0.056349   0.085921  -0.021533   0.280033  -0.003926  -0.000001
    35  H   -0.011046  -0.001075  -0.002891   0.383783  -0.000539   0.000000
    36  H    0.010295   0.000440  -0.036958   0.001412   0.399297   0.000000
    37  H   -0.047876   0.007287  -0.028587  -0.011502   0.391178   0.000000
    38  H    0.053532  -0.008251  -0.011661   0.013482   0.379147   0.000000
              19         20         21         22         23         24
     1  N    0.368808  -0.002472  -0.021845  -0.020378  -0.003127  -0.000019
     2  C    0.015018   0.390283   0.130780   0.002849   0.016652   0.001662
     3  C    0.021212  -0.109955   0.461263  -0.066301   0.040539  -0.003822
     4  C   -0.058207  -0.001999  -0.202649  -0.192100   0.067698  -0.000516
     5  C    0.007020   0.041073  -0.091302   0.548543  -0.089637   0.004094
     6  C   -0.012260   0.029259  -0.024177   0.009044   0.331199  -0.006985
     7  C    0.002841   0.002821   0.043077  -0.011133   0.020941  -0.014328
     8  C    0.000412  -0.032887   0.005196   0.020285  -0.043891  -0.015643
     9  O    0.000040   0.008516   0.000671   0.001890  -0.007843  -0.017422
    10  O    0.000074  -0.001005  -0.001048   0.001134  -0.003114  -0.023221
    11  C    0.000135   0.010216  -0.003619   0.003996  -0.011582   0.589995
    12  C   -0.000061   0.012738   0.000004  -0.000715   0.007177  -0.313023
    13  N   -0.000003  -0.006193   0.000163   0.000013  -0.000121   0.095235
    14  C    0.000005   0.006020  -0.000190   0.000054  -0.000327  -0.114206
    15  C   -0.000001  -0.001878   0.000070  -0.000002  -0.000008   0.034076
    16  C   -0.000002  -0.002958   0.000084  -0.000021   0.000181   0.030404
    17  C    0.000000   0.000098  -0.000006   0.000002  -0.000019  -0.006066
    18  H   -0.019632  -0.000730   0.002263  -0.004213   0.001538  -0.000008
    19  H    0.399547   0.001545  -0.001712   0.002979  -0.000669   0.000011
    20  H    0.001545   0.553517  -0.024153   0.003019  -0.003511  -0.002078
    21  H   -0.001712  -0.024153   0.580292  -0.003610   0.002437   0.000176
    22  H    0.002979   0.003019  -0.003610   0.576781  -0.027257   0.000211
    23  H   -0.000669  -0.003511   0.002437  -0.027257   0.498672  -0.001141
    24  H    0.000011  -0.002078   0.000176   0.000211  -0.001141   0.604175
    25  H    0.000014   0.001520   0.000096   0.000274  -0.001844  -0.041991
    26  H   -0.000021  -0.008404   0.000509  -0.000075   0.000366   0.014009
    27  H   -0.000023  -0.001823   0.000452   0.000068  -0.000218  -0.011789
    28  H   -0.000001  -0.000188  -0.000006  -0.000005   0.000102  -0.014062
    29  H    0.000000   0.000368  -0.000008   0.000002  -0.000036  -0.005090
    30  H   -0.000001  -0.000233   0.000002  -0.000009   0.000097  -0.003016
    31  H    0.000000  -0.000149   0.000003   0.000000   0.000005  -0.000222
    32  H    0.000000   0.000343  -0.000011   0.000002  -0.000021   0.001335
    33  H    0.000000  -0.000088   0.000001   0.000000  -0.000007   0.000275
    34  H    0.000003   0.001486  -0.000087   0.000009  -0.000072  -0.005225
    35  H    0.000000  -0.000079   0.000004  -0.000001   0.000025  -0.000694
    36  H    0.000000  -0.000017   0.000000   0.000000  -0.000002   0.000885
    37  H    0.000001   0.000511  -0.000042  -0.000004   0.000022  -0.001943
    38  H    0.000000  -0.000218   0.000010   0.000000  -0.000001   0.000852
              25         26         27         28         29         30
     1  N   -0.000052  -0.000010  -0.000002   0.000001   0.000000   0.000001
     2  C    0.001116  -0.008811  -0.010806   0.001123   0.000794  -0.002811
     3  C   -0.005540  -0.001794  -0.015296   0.001073   0.000097  -0.000886
     4  C    0.000329   0.000322  -0.004105   0.000079   0.000011  -0.000180
     5  C    0.007836  -0.000504  -0.000659  -0.000515  -0.000007  -0.000047
     6  C   -0.002826   0.001087  -0.009446  -0.001852  -0.000207   0.000400
     7  C    0.001232  -0.000795   0.019659   0.001179   0.000602   0.000108
     8  C   -0.033226   0.028976  -0.028666  -0.004193  -0.004504   0.017436
     9  O    0.001176  -0.010140  -0.008607  -0.005529   0.002391  -0.004732
    10  O   -0.027362   0.003103  -0.002859   0.002317  -0.000864   0.002626
    11  C    0.299713   0.066904  -0.067298   0.011586  -0.041752   0.006813
    12  C    0.000958   0.130324   0.415563  -0.052382   0.114822  -0.011789
    13  N   -0.037116   0.114674  -0.021759   0.390606  -0.102820  -0.028249
    14  C    0.089265  -0.163682   0.072518  -0.027835   0.536316   0.396121
    15  C   -0.008559   0.045887  -0.049074  -0.033742  -0.052802   0.014270
    16  C   -0.045512   0.099771  -0.029777   0.007924  -0.142189  -0.022268
    17  C    0.004161  -0.002368   0.026065   0.022101   0.000796  -0.004811
    18  H   -0.000009   0.000007  -0.000003   0.000000   0.000000   0.000000
    19  H    0.000014  -0.000021  -0.000023  -0.000001   0.000000  -0.000001
    20  H    0.001520  -0.008404  -0.001823  -0.000188   0.000368  -0.000233
    21  H    0.000096   0.000509   0.000452  -0.000006  -0.000008   0.000002
    22  H    0.000274  -0.000075   0.000068  -0.000005   0.000002  -0.000009
    23  H   -0.001844   0.000366  -0.000218   0.000102  -0.000036   0.000097
    24  H   -0.041991   0.014009  -0.011789  -0.014062  -0.005090  -0.003016
    25  H    0.586084  -0.026219   0.006780  -0.003243   0.010894  -0.023829
    26  H   -0.026219   0.515112  -0.036076   0.006125  -0.016555   0.008091
    27  H    0.006780  -0.036076   0.516348  -0.004341   0.002724  -0.000777
    28  H   -0.003243   0.006125  -0.004341   0.363526  -0.008418  -0.000663
    29  H    0.010894  -0.016555   0.002724  -0.008418   0.522684  -0.031344
    30  H   -0.023829   0.008091  -0.000777  -0.000663  -0.031344   0.455973
    31  H   -0.001713   0.000967   0.000562  -0.010603  -0.001884   0.004664
    32  H    0.002657  -0.005091   0.008123   0.001198   0.006414  -0.004672
    33  H   -0.000732   0.003551  -0.000490   0.000269  -0.011654  -0.003299
    34  H   -0.002901  -0.037921   0.005482  -0.000104   0.016587  -0.003756
    35  H   -0.001033   0.005792  -0.002784   0.000089  -0.002292   0.003557
    36  H    0.000291  -0.000057   0.001586  -0.002532   0.000428   0.000124
    37  H   -0.000123  -0.013338   0.000712  -0.005209   0.002644   0.000829
    38  H    0.000073   0.006315  -0.001018   0.008819  -0.004478  -0.000906
              31         32         33         34         35         36
     1  N    0.000000   0.000000   0.000000   0.000005   0.000000   0.000000
     2  C   -0.000163   0.000138  -0.000110   0.001550  -0.000126   0.000034
     3  C    0.000037  -0.000200   0.000028   0.000195   0.000054   0.000017
     4  C    0.000014  -0.000044   0.000022  -0.000045  -0.000013   0.000004
     5  C   -0.000006   0.000024   0.000091  -0.000408  -0.000022   0.000006
     6  C    0.000062  -0.000108   0.000398  -0.001459   0.000055   0.000015
     7  C   -0.000091   0.000457  -0.000403   0.001469   0.000082  -0.000026
     8  C    0.003660  -0.004411   0.002950  -0.009925   0.002499  -0.000186
     9  O   -0.000096   0.001061   0.000581  -0.003360  -0.000852   0.000303
    10  O    0.000157  -0.000254  -0.000009  -0.001044   0.000173   0.000000
    11  C   -0.013333   0.032580   0.014725  -0.053108  -0.017946   0.004759
    12  C    0.036956  -0.066426  -0.028949   0.133592  -0.000939  -0.007762
    13  N   -0.035582   0.014793   0.023157  -0.056349  -0.011046   0.010295
    14  C   -0.037631   0.006922  -0.093716   0.085921  -0.001075   0.000440
    15  C    0.432759   0.390288   0.009881  -0.021533  -0.002891  -0.036958
    16  C    0.000290   0.016418   0.460038   0.280033   0.383783   0.001412
    17  C   -0.074473  -0.010705  -0.000788  -0.003926  -0.000539   0.399297
    18  H    0.000000   0.000000   0.000000  -0.000001   0.000000   0.000000
    19  H    0.000000   0.000000   0.000000   0.000003   0.000000   0.000000
    20  H   -0.000149   0.000343  -0.000088   0.001486  -0.000079  -0.000017
    21  H    0.000003  -0.000011   0.000001  -0.000087   0.000004   0.000000
    22  H    0.000000   0.000002   0.000000   0.000009  -0.000001   0.000000
    23  H    0.000005  -0.000021  -0.000007  -0.000072   0.000025  -0.000002
    24  H   -0.000222   0.001335   0.000275  -0.005225  -0.000694   0.000885
    25  H   -0.001713   0.002657  -0.000732  -0.002901  -0.001033   0.000291
    26  H    0.000967  -0.005091   0.003551  -0.037921   0.005792  -0.000057
    27  H    0.000562   0.008123  -0.000490   0.005482  -0.002784   0.001586
    28  H   -0.010603   0.001198   0.000269  -0.000104   0.000089  -0.002532
    29  H   -0.001884   0.006414  -0.011654   0.016587  -0.002292   0.000428
    30  H    0.004664  -0.004672  -0.003299  -0.003756   0.003557   0.000124
    31  H    0.504186  -0.031528  -0.000621   0.001725  -0.003842  -0.010419
    32  H   -0.031528   0.469594   0.000581   0.002137  -0.006750   0.003620
    33  H   -0.000621   0.000581   0.465835  -0.031960  -0.016988   0.000122
    34  H    0.001725   0.002137  -0.031960   0.568117  -0.046596  -0.000556
    35  H   -0.003842  -0.006750  -0.016988  -0.046596   0.534477   0.000905
    36  H   -0.010419   0.003620   0.000122  -0.000556   0.000905   0.469535
    37  H    0.010517  -0.017487  -0.000565   0.002283   0.000703  -0.020863
    38  H   -0.001283   0.001281   0.000477  -0.001193   0.000020  -0.021242
              37         38
     1  N    0.000000   0.000000
     2  C    0.000670  -0.000163
     3  C    0.001314  -0.000167
     4  C    0.000222  -0.000033
     5  C   -0.000126   0.000029
     6  C    0.000050   0.000107
     7  C   -0.000585  -0.000208
     8  C    0.003042   0.000951
     9  O    0.000866  -0.000559
    10  O    0.000198  -0.000077
    11  C   -0.036101   0.035151
    12  C    0.083857  -0.106749
    13  N   -0.047876   0.053532
    14  C    0.007287  -0.008251
    15  C   -0.028587  -0.011661
    16  C   -0.011502   0.013482
    17  C    0.391178   0.379147
    18  H    0.000000   0.000000
    19  H    0.000001   0.000000
    20  H    0.000511  -0.000218
    21  H   -0.000042   0.000010
    22  H   -0.000004   0.000000
    23  H    0.000022  -0.000001
    24  H   -0.001943   0.000852
    25  H   -0.000123   0.000073
    26  H   -0.013338   0.006315
    27  H    0.000712  -0.001018
    28  H   -0.005209   0.008819
    29  H    0.002644  -0.004478
    30  H    0.000829  -0.000906
    31  H    0.010517  -0.001283
    32  H   -0.017487   0.001281
    33  H   -0.000565   0.000477
    34  H    0.002283  -0.001193
    35  H    0.000703   0.000020
    36  H   -0.020863  -0.021242
    37  H    0.552081  -0.054123
    38  H   -0.054123   0.547651
 Mulliken charges:
               1
     1  N   -0.311619
     2  C   -0.350574
     3  C   -0.457729
     4  C    0.049558
     5  C   -0.339599
     6  C   -0.231229
     7  C    0.431925
     8  C    0.133909
     9  O   -0.106315
    10  O   -0.258097
    11  C   -0.037066
    12  C   -0.644066
    13  N    0.010799
    14  C   -0.211127
    15  C   -0.130217
    16  C   -0.503711
    17  C   -0.566341
    18  H    0.276299
    19  H    0.272929
    20  H    0.137684
    21  H    0.146914
    22  H    0.154666
    23  H    0.206798
    24  H    0.225115
    25  H    0.249361
    26  H    0.279971
    27  H    0.231056
    28  H    0.357309
    29  H    0.208330
    30  H    0.237161
    31  H    0.227075
    32  H    0.187740
    33  H    0.207399
    34  H    0.180940
    35  H    0.184290
    36  H    0.206542
    37  H    0.179487
    38  H    0.164433
 Sum of Mulliken charges =   1.00000
 Mulliken charges with hydrogens summed into heavy atoms:
               1
     1  N    0.237609
     2  C   -0.212890
     3  C   -0.310815
     4  C    0.049558
     5  C   -0.184932
     6  C   -0.024431
     7  C    0.431925
     8  C    0.133909
     9  O   -0.106315
    10  O   -0.258097
    11  C    0.437410
    12  C   -0.133039
    13  N    0.368108
    14  C    0.234364
    15  C    0.284597
    16  C    0.068918
    17  C   -0.015878
 Electronic spatial extent (au):  <R**2>=           7354.5876
 Charge=              1.0000 electrons
 Dipole moment (field-independent basis, Debye):
    X=            -11.2385    Y=              3.2830    Z=              1.2454  Tot=             11.7743
 Quadrupole moment (field-independent basis, Debye-Ang):
   XX=             27.1699   YY=            -91.7346   ZZ=            -98.5861
   XY=              4.5396   XZ=              6.4332   YZ=             -1.2804
 Traceless Quadrupole moment (field-independent basis, Debye-Ang):
   XX=             81.5535   YY=            -37.3510   ZZ=            -44.2025
   XY=              4.5396   XZ=              6.4332   YZ=             -1.2804
 Octapole moment (field-independent basis, Debye-Ang**2):
  XXX=            -19.8397  YYY=             22.2940  ZZZ=             -1.8658  XYY=            -27.4963
  XXY=             52.0075  XXZ=             20.4277  XZZ=            -37.9886  YZZ=              1.5620
  YYZ=             13.5120  XYZ=             27.1578
 Hexadecapole moment (field-independent basis, Debye-Ang**3):
 XXXX=          -4380.9283 YYYY=           -941.2863 ZZZZ=           -404.0996 XXXY=             98.6153
 XXXZ=            213.8927 YYYX=             37.0427 YYYZ=             -5.3996 ZZZX=             -1.4348
 ZZZY=             -6.8433 XXYY=          -1203.3246 XXZZ=          -1415.0244 YYZZ=           -227.9583
 XXYZ=             64.0809 YYXZ=             27.1742 ZZXY=             20.2731
 N-N= 1.196462310808D+03 E-N=-4.165515762365D+03  KE= 7.653517119197D+02

 **********************************************************************

            Electrostatic Properties Using The SCF Density

 **********************************************************************

       Atomic Center    1 is at   6.017545  0.939645  0.549363
       Atomic Center    2 is at   2.543221  0.895400  0.288241
       Atomic Center    3 is at   3.787795  1.325375  0.551337
       Atomic Center    4 is at   4.842362  0.534682  0.301069
       Atomic Center    5 is at   4.640576 -0.687508 -0.214183
       Atomic Center    6 is at   3.394493 -1.114595 -0.476193
       Atomic Center    7 is at   2.327705 -0.329713 -0.228275
       Atomic Center    8 is at   1.051849 -0.746390 -0.487565
       Atomic Center    9 is at  -0.034477  0.064726 -0.222819
       Atomic Center   10 is at   0.819664 -1.848317 -0.946792
       Atomic Center   11 is at  -1.324100 -0.475837 -0.407013
       Atomic Center   12 is at  -2.378574  0.527279  0.064416
       Atomic Center   13 is at  -3.776629  0.041472 -0.294872
       Atomic Center   14 is at  -4.121899 -1.353386  0.199326
       Atomic Center   15 is at  -4.854288  1.045693  0.078897
       Atomic Center   16 is at  -4.055717 -1.453687  1.728496
       Atomic Center   17 is at  -4.676116  2.328756 -0.743938
       Atomic Center   18 is at   6.841239  0.319812  0.352926
       Atomic Center   19 is at   6.172413  1.896122  0.952331
       Atomic Center   20 is at   1.710742  1.583581  0.511628
       Atomic Center   21 is at   3.934229  2.333990  0.974803
       Atomic Center   22 is at   5.496552 -1.351140 -0.426505
       Atomic Center   23 is at   3.288495 -2.127521 -0.898980
       Atomic Center   24 is at  -1.477140 -0.695643 -1.489997
       Atomic Center   25 is at  -1.397402 -1.409178  0.197403
       Atomic Center   26 is at  -2.288700  0.714947  1.158432
       Atomic Center   27 is at  -2.171342  1.488667 -0.458475
       Atomic Center   28 is at  -3.795589 -0.022169 -1.340712
       Atomic Center   29 is at  -5.145718 -1.623521 -0.150346
       Atomic Center   30 is at  -3.449381 -2.105537 -0.270192
       Atomic Center   31 is at  -5.855485  0.618611 -0.167346
       Atomic Center   32 is at  -4.833277  1.279644  1.167681
       Atomic Center   33 is at  -4.332170 -2.482235  2.057058
       Atomic Center   34 is at  -3.034239 -1.258973  2.123253
       Atomic Center   35 is at  -4.763272 -0.757371  2.230243
       Atomic Center   36 is at  -5.581417  2.973704 -0.660348
       Atomic Center   37 is at  -3.822124  2.948353 -0.390764
       Atomic Center   38 is at  -4.528163  2.100355 -1.824323
 -----------------------------------------------------------------

              Electrostatic Properties (Atomic Units)

 -----------------------------------------------------------------
    Center     Electric         -------- Electric Field --------
               Potential          X             Y             Z
 -----------------------------------------------------------------
    1 Atom    -18.286405      0.024873      0.008434      0.005204
    2 Atom    -14.697599     -0.005230      0.010201      0.003852
    3 Atom    -14.711230     -0.005694      0.012134      0.004560
    4 Atom    -14.665637     -0.012449     -0.004082     -0.002565
    5 Atom    -14.711369      0.004138     -0.012640     -0.004902
    6 Atom    -14.700136      0.003180     -0.013539     -0.005410
    7 Atom    -14.710554      0.001779      0.004274      0.001830
    8 Atom    -14.574161      0.001737     -0.008090     -0.002706
    9 Atom    -22.224029      0.007238      0.042020      0.014192
   10 Atom    -22.316703     -0.007431     -0.047941     -0.020002
   11 Atom    -14.569781     -0.008583     -0.011458     -0.002915
   12 Atom    -14.557830      0.014709      0.004777      0.002872
   13 Atom    -18.105666     -0.000971     -0.000223      0.003394
   14 Atom    -14.554490     -0.003010     -0.013290      0.006808
   15 Atom    -14.551306     -0.009444      0.011069      0.001247
   16 Atom    -14.619178     -0.000186     -0.001343      0.003447
   17 Atom    -14.615710     -0.000154      0.003500     -0.000597
   18 Atom     -0.924353     -0.006703      0.013274      0.004952
   19 Atom     -0.923978      0.004814     -0.014062     -0.005458
   20 Atom     -1.021732     -0.006585      0.000726     -0.000209
   21 Atom     -1.020980      0.002139      0.005901      0.002544
   22 Atom     -1.022589      0.005217     -0.003501     -0.001067
   23 Atom     -1.031986     -0.006843     -0.004328     -0.002308
[...]
 N-N= 1.179443443376D+03 E-N=-4.130747637949D+03  KE= 7.646715966729D+02

 **********************************************************************

            Electrostatic Properties Using The SCF Density

 **********************************************************************

       Atomic Center    1 is at   6.154747  1.083589  0.516206
       Atomic Center    2 is at   2.491572  0.880394  0.375681
       Atomic Center    3 is at   3.760548  1.371269  0.611488
       Atomic Center    4 is at   4.899867  0.603717  0.284131
       Atomic Center    5 is at   4.710800 -0.673621 -0.288358
       Atomic Center    6 is at   3.440025 -1.155751 -0.519541
       Atomic Center    7 is at   2.304463 -0.391257 -0.193786
       Atomic Center    8 is at   0.991265 -0.966534 -0.462155
       Atomic Center    9 is at  -0.060026 -0.116608 -0.113095
       Atomic Center   10 is at   0.749641 -2.053485 -0.934064
       Atomic Center   11 is at  -1.344778 -0.674091 -0.339651
       Atomic Center   12 is at  -2.322457  0.407021  0.107415
       Atomic Center   13 is at  -3.749484  0.095145 -0.294148
       Atomic Center   14 is at  -4.282716 -1.222818  0.267891
       Atomic Center   15 is at  -4.688485  1.264695 -0.019239
       Atomic Center   16 is at  -4.348110 -1.275656  1.785106
       Atomic Center   17 is at  -4.496824  2.416482 -0.994609
       Atomic Center   18 is at   6.969893  0.544108  0.280670
       Atomic Center   19 is at   6.299958  1.993398  0.918435
       Atomic Center   20 is at   1.632622  1.485177  0.635817
       Atomic Center   21 is at   3.888641  2.353749  1.052558
       Atomic Center   22 is at   5.574570 -1.276659 -0.545879
       Atomic Center   23 is at   3.301435 -2.136453 -0.957738
       Atomic Center   24 is at  -1.475989 -0.916323 -1.401894
       Atomic Center   25 is at  -1.455949 -1.601881  0.226466
       Atomic Center   26 is at  -2.308281  0.546385  1.187333
       Atomic Center   27 is at  -2.056785  1.350142 -0.367080
       Atomic Center   28 is at  -3.741015 -0.027898 -1.310497
       Atomic Center   29 is at  -5.272021 -1.345945 -0.175983
       Atomic Center   30 is at  -3.640906 -2.008202 -0.130584
       Atomic Center   31 is at  -5.699397  0.862211 -0.093097
       Atomic Center   32 is at  -4.515567  1.569634  1.012342
       Atomic Center   33 is at  -4.766616 -2.244181  2.066505
       Atomic Center   34 is at  -3.364282 -1.203176  2.251235
       Atomic Center   35 is at  -4.999909 -0.507585  2.204531
       Atomic Center   36 is at  -5.253442  3.174825 -0.783592
       Atomic Center   37 is at  -3.522523  2.897677 -0.901653
       Atomic Center   38 is at  -4.639230  2.097507 -2.031258
 -----------------------------------------------------------------

              Electrostatic Properties (Atomic Units)

 -----------------------------------------------------------------
    Center     Electric         -------- Electric Field --------
               Potential          X             Y             Z
 -----------------------------------------------------------------
    1 Atom    -18.289564      0.002065      0.000541      0.000692
    2 Atom    -14.680692     -0.000189      0.000152      0.000063
    3 Atom    -14.691389     -0.000504      0.000751      0.000322
    4 Atom    -14.633363     -0.008103     -0.003229     -0.001585
    5 Atom    -14.693787      0.000302     -0.001314     -0.000577
    6 Atom    -14.686189     -0.000161     -0.001361     -0.000588
    7 Atom    -14.682690      0.002863      0.000696      0.000340
    8 Atom    -14.556265      0.013633      0.003767      0.001929
    9 Atom    -22.221803      0.008958      0.037958      0.015483
   10 Atom    -22.296031     -0.007263     -0.047210     -0.020466
   11 Atom    -14.574113     -0.008241     -0.006354     -0.002234
   12 Atom    -14.565184      0.011238      0.000582      0.002079
   13 Atom    -18.114700     -0.001026      0.000454      0.006139
   14 Atom    -14.558506     -0.003749     -0.008496      0.005644
   15 Atom    -14.557839     -0.005688      0.009122      0.000243
   16 Atom    -14.624017     -0.000381     -0.000594      0.001937
   17 Atom    -14.621375     -0.000129      0.001327     -0.000779
   18 Atom     -0.937140      0.018850     -0.012297     -0.005357
   19 Atom     -0.936733      0.003510      0.020923      0.009259
   20 Atom     -1.019053     -0.015282      0.010891      0.004669
   21 Atom     -1.019535      0.001999      0.017291      0.007756
   22 Atom     -1.023028      0.015063     -0.010811     -0.004620
   23 Atom     -1.027658     -0.002378     -0.017676     -0.007906
   24 Atom     -0.971524     -0.001398     -0.004238     -0.017602
   25 Atom     -0.975574     -0.001294     -0.015997      0.009751
   26 Atom     -0.938868      0.000658      0.002623      0.018880
   27 Atom     -0.939106      0.005023      0.016557     -0.007920
   28 Atom     -0.816049      0.000138     -0.002574     -0.020780
   29 Atom     -0.936972     -0.016921     -0.002408     -0.007440
   30 Atom     -0.937704      0.010967     -0.013886     -0.006796
   31 Atom     -0.936111     -0.017590     -0.006509     -0.001142
   32 Atom     -0.935986      0.002707      0.005563      0.017881
   33 Atom     -0.963862     -0.006953     -0.016132      0.005014
   34 Atom     -0.966590      0.016395      0.001005      0.008097
   35 Atom     -0.966266     -0.010989      0.012720      0.007317
   36 Atom     -0.961328     -0.012563      0.012873      0.003309
   37 Atom     -0.964728      0.016189      0.008572      0.001372
   38 Atom     -0.961967     -0.002510     -0.004694     -0.017195
 -----------------------------------------------------------------
 -----------------------------------------------------
    Center         ---- Electric Field Gradient ----
                     XX            YY            ZZ
 -----------------------------------------------------
    1 Atom     -812.032723   -811.705589   -810.683228
    2 Atom     -500.782151   -500.907210   -501.264956
    3 Atom     -500.612814   -500.699580   -500.855188
    4 Atom     -500.858015   -500.719147   -501.153901
    5 Atom     -500.603999   -500.729465   -500.884797
    6 Atom     -500.830744   -500.930609   -501.330326
    7 Atom     -500.597005   -500.507478   -500.641517
    8 Atom     -501.200491   -501.221517   -501.578943
    9 Atom    -1238.964782  -1236.615002  -1235.844142
   10 Atom    -1236.449925  -1238.491280  -1238.607211
   11 Atom     -500.702433   -500.273330   -500.143711
   12 Atom     -500.953539   -500.398334   -500.378586
   13 Atom     -812.859246   -812.844167   -812.799616
   14 Atom     -500.374606   -500.831110   -500.383685
   15 Atom     -500.576365   -500.687502   -500.320403
   16 Atom     -500.136457   -500.130324   -500.340897
   17 Atom     -500.153782   -500.273473   -500.264268
   18 Atom       -2.005930     -1.778854     -1.584709
   19 Atom       -1.636119     -2.091895     -1.647625
   20 Atom       -1.986169     -1.838817     -1.706022
   21 Atom       -1.700876     -2.064361     -1.741288
   22 Atom       -1.984573     -1.825323     -1.689130
   23 Atom       -1.684035     -2.054470     -1.741373
   24 Atom       -1.719986     -1.708347     -2.096524
   25 Atom       -1.727323     -2.013989     -1.822200
   26 Atom       -1.705219     -1.692199     -2.129160
   27 Atom       -1.727280     -2.023615     -1.775156
   28 Atom       -1.624568     -1.631384     -2.131024
   29 Atom       -2.057065     -1.712446     -1.770834
   30 Atom       -1.854968     -1.930044     -1.756288
   31 Atom       -2.076159     -1.775650     -1.693140
   32 Atom       -1.710752     -1.734853     -2.092225
   33 Atom       -1.716857     -2.008567     -1.690220
   34 Atom       -2.049768     -1.674505     -1.761054
   35 Atom       -1.835078     -1.905761     -1.746629
   36 Atom       -1.870536     -1.870375     -1.673789
   37 Atom       -2.044606     -1.763470     -1.681333
   38 Atom       -1.672879     -1.721428     -2.069968
 -----------------------------------------------------
 -----------------------------------------------------
    Center         ---- Electric Field Gradient ----
                     XY            XZ            YZ
 -----------------------------------------------------
    1 Atom       -0.031454     -0.030625     -0.567582
    2 Atom        0.013336      0.013196      0.200206
    3 Atom        0.033633      0.018665      0.087553
    4 Atom       -0.114686     -0.046485      0.239552
    5 Atom        0.019257      0.012643      0.086820
    6 Atom        0.019947      0.016246      0.222852
    7 Atom       -0.067161     -0.029199      0.072810
    8 Atom        0.262270      0.118676      0.195080
    9 Atom        0.036150      0.024624     -0.376439
   10 Atom       -0.403982     -0.140212      0.049876
   11 Atom       -0.113387     -0.041975     -0.087729
   12 Atom       -0.134724     -0.177939     -0.067401
   13 Atom       -0.004845     -0.002650     -0.007034
   14 Atom       -0.244447      0.080292      0.195576
   15 Atom        0.338398      0.101213     -0.086520
   16 Atom        0.003973      0.012234      0.011370
   17 Atom       -0.019781      0.012243      0.098628
   18 Atom        0.255408      0.110818     -0.105822
   19 Atom       -0.074476     -0.033802     -0.244066
   20 Atom        0.209297      0.089795     -0.070364
   21 Atom       -0.050549     -0.023138     -0.181559
   22 Atom        0.202250      0.085909     -0.071845
   23 Atom       -0.048537     -0.021953     -0.174770
   24 Atom       -0.015658     -0.057044     -0.087125
   25 Atom       -0.047748      0.022914      0.196207
   26 Atom       -0.001610     -0.001789     -0.054805
   27 Atom       -0.087995      0.039514      0.172503
   28 Atom        0.000671      0.002821     -0.061319
   29 Atom       -0.044461     -0.163620     -0.007640
   30 Atom        0.181881      0.104162     -0.108329
   31 Atom       -0.146813     -0.028512     -0.015117
   32 Atom       -0.008748     -0.071184     -0.116639
   33 Atom       -0.155011      0.043120      0.098851
   34 Atom       -0.031262     -0.168790     -0.012416
   35 Atom        0.194924      0.100694     -0.117926
   36 Atom        0.215837      0.065530     -0.056926
   37 Atom       -0.174474     -0.039950     -0.012124
   38 Atom       -0.018159     -0.054481     -0.126394
 -----------------------------------------------------
 -----------------------------------------------------
    Center         ---- Electric Field Gradient ----
                   ----       Eigenvalues       ----
 -----------------------------------------------------
    1 Atom     -812.051132   -811.939986   -810.430422
    2 Atom     -501.354633   -500.824824   -500.774860
    3 Atom     -500.894550   -500.681598   -500.591434
    4 Atom     -501.260043   -500.909563   -500.561457
    5 Atom     -500.923662   -500.696244   -500.598354
    6 Atom     -501.429886   -500.855733   -500.806060
    7 Atom     -500.673458   -500.631411   -500.441131
    8 Atom     -501.664824   -501.457729   -500.878398
    9 Atom    -1238.965640  -1236.767500  -1235.690786
   10 Atom    -1238.625800  -1238.559372  -1236.363245
   11 Atom     -500.737126   -500.283243   -500.099104
   12 Atom     -501.038442   -500.378718   -500.313300
   13 Atom     -812.861013   -812.843542   -812.798473
   14 Atom     -501.008780   -500.312583   -500.268037
   15 Atom     -501.000306   -500.312959   -500.271005
   16 Atom     -500.342209   -500.138253   -500.127216
   17 Atom     -500.370003   -500.171280   -500.150240
   18 Atom       -2.208338     -1.622984     -1.538171
   19 Atom       -2.211405     -1.624500     -1.539734
   20 Atom       -2.162807     -1.692531     -1.675669
   21 Atom       -2.152683     -1.694041     -1.659802
   22 Atom       -2.149313     -1.691487     -1.658226
   23 Atom       -2.138794     -1.677798     -1.663286
   24 Atom       -2.123820     -1.711849     -1.689188
   25 Atom       -2.143147     -1.722160     -1.698206
   26 Atom       -2.135938     -1.705306     -1.685335
   27 Atom       -2.134744     -1.705728     -1.685579
   28 Atom       -2.138455     -1.624698     -1.623821
   29 Atom       -2.135830     -1.714962     -1.689553
   30 Atom       -2.137172     -1.714459     -1.689670
   31 Atom       -2.138293     -1.716243     -1.690413
   32 Atom       -2.138623     -1.711369     -1.687838
   33 Atom       -2.103685     -1.662100     -1.649858
   34 Atom       -2.129990     -1.683589     -1.671748
   35 Atom       -2.131063     -1.684298     -1.672108
   36 Atom       -2.103735     -1.661494     -1.649471
   37 Atom       -2.131873     -1.685165     -1.672371
   38 Atom       -2.118381     -1.680432     -1.665463
 -----------------------------------------------------
 -----------------------------------------------------
    Center         ---- Electric Field Gradient ----
                       ( tensor representation )
                   3XX-RR        3YY-RR        3ZZ-RR
 -----------------------------------------------------
    1 Atom       -0.558876     -0.231742      0.790619
    2 Atom        0.202622      0.077562     -0.280184
    3 Atom        0.109714      0.022947     -0.132661
    4 Atom        0.052340      0.191207     -0.243546
    5 Atom        0.135421      0.009955     -0.145376
    6 Atom        0.199816      0.099950     -0.299766
    7 Atom       -0.015005      0.074522     -0.059517
    8 Atom        0.133159      0.112133     -0.245293
    9 Atom       -1.823474      0.526307      1.297167
   10 Atom        1.399547     -0.641808     -0.757739
   11 Atom       -0.329275      0.099828      0.229447
   12 Atom       -0.376719      0.178485      0.198234
   13 Atom       -0.024903     -0.009824      0.034727
   14 Atom        0.155195     -0.301310      0.146115
   15 Atom       -0.048275     -0.159412      0.207687
   16 Atom        0.066102      0.072235     -0.138337
   17 Atom        0.076726     -0.042966     -0.033760
   18 Atom       -0.216099      0.010977      0.205122
   19 Atom        0.155761     -0.300015      0.144254
   20 Atom       -0.142500      0.004852      0.137647
   21 Atom        0.134633     -0.228853      0.094220
   22 Atom       -0.151564      0.007685      0.143879
   23 Atom        0.142592     -0.227844      0.085253
   24 Atom        0.121633      0.133272     -0.254905
   25 Atom        0.127181     -0.159485      0.032304
   26 Atom        0.136974      0.149994     -0.286967
   27 Atom        0.114737     -0.181598      0.066861
   28 Atom        0.171091      0.164275     -0.335365
   29 Atom       -0.210283      0.134336      0.075947
   30 Atom       -0.007868     -0.082944      0.090812
   31 Atom       -0.227842      0.072666      0.155176
   32 Atom        0.135191      0.111090     -0.246281
   33 Atom        0.088357     -0.203352      0.114995
   34 Atom       -0.221326      0.153938      0.067388
   35 Atom       -0.005922     -0.076605      0.082527
   36 Atom       -0.065636     -0.065474      0.131111
   37 Atom       -0.214803      0.066333      0.148470
   38 Atom        0.148546      0.099997     -0.248543
 -----------------------------------------------------
 -----------------------------------------------------
    Center         ---- Electric Field Gradient ----
                       ( tensor representation )
                   ----       Eigenvalues       ----
 -----------------------------------------------------
    1 Atom       -0.577285     -0.466139      1.043425
    2 Atom       -0.369861      0.159948      0.209912
    3 Atom       -0.172023      0.040929      0.131093
    4 Atom       -0.349688      0.000791      0.348898
    5 Atom       -0.184242      0.043176      0.141066
    6 Atom       -0.399326      0.174826      0.224500
    7 Atom       -0.091458     -0.049411      0.140869
    8 Atom       -0.331173     -0.124079      0.455252
    9 Atom       -1.824332      0.373809      1.450523
   10 Atom       -0.776327     -0.709900      1.486227
   11 Atom       -0.363969      0.089915      0.274054
   12 Atom       -0.461622      0.198102      0.263520
   13 Atom       -0.026670     -0.009200      0.035870
   14 Atom       -0.478980      0.217217      0.261763
   15 Atom       -0.472216      0.215131      0.257085
   16 Atom       -0.139650      0.064307      0.075343
   17 Atom       -0.139495      0.059228      0.080268
   18 Atom       -0.418507      0.166847      0.251660
   19 Atom       -0.419525      0.167380      0.252146
   20 Atom       -0.319138      0.151138      0.168000
   21 Atom       -0.317174      0.141468      0.175706
   22 Atom       -0.316305      0.141522      0.174783
   23 Atom       -0.312167      0.148828      0.163340
   24 Atom       -0.282201      0.129770      0.152431
   25 Atom       -0.288642      0.132344      0.156298
   26 Atom       -0.293745      0.136887      0.156858
   27 Atom       -0.292727      0.136289      0.156438
   28 Atom       -0.342797      0.170960      0.171837
   29 Atom       -0.289048      0.131820      0.157228
   30 Atom       -0.290072      0.132641      0.157431
   31 Atom       -0.289977      0.132073      0.157904
   32 Atom       -0.292680      0.134574      0.158106
   33 Atom       -0.298470      0.143114      0.155356
   34 Atom       -0.301547      0.144854      0.156694
   35 Atom       -0.301907      0.144858      0.157049
   36 Atom       -0.298835      0.143406      0.155429
   37 Atom       -0.302070      0.144638      0.157432
   38 Atom       -0.296955      0.140994      0.155962
 -----------------------------------------------------

 Test job not archived.
 1|1|UNPC-NP-ALMACH|FOpt|RB3LYP|6-311++G(d,p)|C13H21N2O2(1+)|HERA|24-Au
 g-2018|0||# RB3LYP/6-311++G** Opt Test prop=EFG||C13N2H21O2||1,1|N,1.5
 375565489,-5.4467961936,1.5340566936|C,0.8900553549,-1.8890180082,0.89
 93610757|C,1.567880766,-3.0824771102,1.0512528609|C,0.8725410091,-4.26
 63555241,1.3818280405|C,-0.5280181909,-4.2005428262,1.5526620059|C,-1.
 1962289535,-3.0043631357,1.3996571358|C,-0.5039001632,-1.8244957458,1.
 0700173737|C,-1.2750197938,-0.5945508371,0.9283624542|O,-0.4889364329,
 0.507738832,0.5871001027|O,-2.4677697758,-0.4563962461,1.0725945129|C,
 -1.2201295489,1.7183658819,0.4755602045|C,-0.17914577,2.769034317,0.10
 54542896|N,-0.8087700315,4.0840051613,-0.3060660865|C,-1.6921236782,4.
 7171529371,0.7691363645|C,0.2219595368,5.0620430939,-0.8594062507|C,-0
 .9558306067,5.089230123,2.0452397545|C,0.7122482926,4.6789966388,-2.24
 77817762|H,1.0475772948,-6.2940693306,1.7643363837|H,2.5334136129,-5.5
 051218664,1.4095830828|H,1.4433384233,-0.9937022849,0.6473374568|H,2.6
 436159787,-3.1159789609,0.9175009328|H,-1.0779346616,-5.1000423534,1.8
 067534467|H,-2.270118071,-2.9599941753,1.5330548792|H,-1.9916708761,1.
 6305071803,-0.2998479154|H,-1.7243941152,1.9400057486,1.4190824477|H,0
 .5015588809,2.9748341876,0.930156597|H,0.4026786342,2.4147605834,-0.74
 37662057|H,-1.4401305655,3.8689839527,-1.0828059808|H,-2.1357172193,5.
 5953824085,0.2970699282|H,-2.4941613019,4.0059235039,0.9651411976|H,-0
 .268487527,6.0359222959,-0.8797263412|H,1.0352871914,5.1029858817,-0.1
 356182209|H,-1.6762870671,5.5538695734,2.7215725654|H,-0.5441920739,4.
 2207638971,2.5617356385|H,-0.1586763558,5.8144548535,1.8741094614|H,1.
 3813722834,5.4645010732,-2.6046282972|H,1.2752919853,3.7450309578,-2.2
 596638632|H,-0.1122560133,4.6071165158,-2.9631089492||Version=EM64W-G0
 9RevD.01|State=1-A|HF=-767.994159|RMSD=2.276e-009|RMSF=7.169e-006|Dipo
 le=0.8499329,4.5882907,-1.2228279|Quadrupole=-26.9891634,53.8046004,-2
 6.815437,-14.4250911,-0.0955788,-16.496812|PG=C01 [X(C13H21N2O2)]||@


 I WISH TO HAVE NO CONNECTION WITH ANY SHIP THAT DOES NOT SAIL FAST,
 FOR I INTEND TO GO IN HARM'S WAY.
     -- JOHN PAUL JONES, USN 1747-1792
 Job cpu time:       0 days  0 hours 40 minutes 36.0 seconds.
 File lengths (MBytes):  RWF=    161 Int=      0 D2E=      0 Chk=     22 Scr=      1
 Normal termination of Gaussian 09 at Fri Aug 24 16:18:52 2018.
