 Entering Link 1 = C:\G09W\l1.exe PID=      5248.
  
 Copyright (c) 1988,1990,1992,1993,1995,1998,2003,2009,2013,
            Gaussian, Inc.  All Rights Reserved.
  
 This is part of the Gaussian(R) 09 program.  It is based on
 the Gaussian(R) 03 system (copyright 2003, Gaussian, Inc.),
 the Gaussian(R) 98 system (copyright 1998, Gaussian, Inc.),
 the Gaussian(R) 94 system (copyright 1995, Gaussian, Inc.),
 the Gaussian 92(TM) system (copyright 1992, Gaussian, Inc.),
 the Gaussian 90(TM) system (copyright 1990, Gaussian, Inc.),
 the Gaussian 88(TM) system (copyright 1988, Gaussian, Inc.),
 the Gaussian 86(TM) system (copyright 1986, Carnegie Mellon
 University), and the Gaussian 82(TM) system (copyright 1983,
 Carnegie Mellon University). Gaussian is a federally registered
 trademark of Gaussian, Inc.
  
 This software contains proprietary and confidential information,
 including trade secrets, belonging to Gaussian, Inc.
  
 This software is provided under written license and may be
 used, copied, transmitted, or stored only in accord with that
 written license.
  
 The following legend is applicable only to US Government
 contracts under FAR:
  
                    RESTRICTED RIGHTS LEGEND
  
 Use, reproduction and disclosure by the US Government is
 subject to restrictions as set forth in subparagraphs (a)
 and (c) of the Commercial Computer Software - Restricted
 Rights clause in FAR 52.227-19.
  
 Gaussian, Inc.
 340 Quinnipiac St., Bldg. 40, Wallingford CT 06492
  
  
 ---------------------------------------------------------------
 Warning -- This program may not be used in any manner that
 competes with the business of Gaussian, Inc. or will provide
 assistance to any competitor of Gaussian, Inc.  The licensee
 of this program is prohibited from giving any competitor of
 Gaussian, Inc. access to this program.  By using this program,
 the user acknowledges that Gaussian, Inc. is engaged in the
 business of creating and licensing software in the field of
 computational chemistry and represents and warrants to the
 licensee that it is not a competitor of Gaussian, Inc. and that
 it will not use this program in any manner prohibited above.
 ---------------------------------------------------------------
  

 Cite this work as:
 Gaussian 09, Revision D.01,
 M. J. Frisch, G. W. Trucks, H. B. Schlegel, G. E. Scuseria, 
 M. A. Robb, J. R. Cheeseman, G. Scalmani, V. Barone, B. Mennucci, 
 G. A. Petersson, H. Nakatsuji, M. Caricato, X. Li, H. P. Hratchian, 
 A. F. Izmaylov, J. Bloino, G. Zheng, J. L. Sonnenberg, M. Hada, 
 M. Ehara, K. Toyota, R. Fukuda, J. Hasegawa, M. Ishida, T. Nakajima, 
 Y. Honda, O. Kitao, H. Nakai, T. Vreven, J. A. Montgomery, Jr., 
 J. E. Peralta, F. Ogliaro, M. Bearpark, J. J. Heyd, E. Brothers, 
 K. N. Kudin, V. N. Staroverov, T. Keith, R. Kobayashi, J. Normand, 
 K. Raghavachari, A. Rendell, J. C. Burant, S. S. Iyengar, J. Tomasi, 
 M. Cossi, N. Rega, J. M. Millam, M. Klene, J. E. Knox, J. B. Cross, 
 V. Bakken, C. Adamo, J. Jaramillo, R. Gomperts, R. E. Stratmann, 
 O. Yazyev, A. J. Austin, R. Cammi, C. Pomelli, J. W. Ochterski, 
 R. L. Martin, K. Morokuma, V. G. Zakrzewski, G. A. Voth, 
 P. Salvador, J. J. Dannenberg, S. Dapprich, A. D. Daniels, 
 O. Farkas, J. B. Foresman, J. V. Ortiz, J. Cioslowski, 
 and D. J. Fox, Gaussian, Inc., Wallingford CT, 2013.
 
 ******************************************
 Gaussian 09:  EM64W-G09RevD.01 13-Apr-2013
                05-Sep-2018 
 ******************************************
 %Chk=Anth_354.chk
 %Mem=128GB
 %NProcShared=20
 Will use up to   20 processors via shared memory.
 -------------------------------------
 # RB3LYP/6-311++G** Opt Test prop=EFG
 -------------------------------------
 1/14=-1,18=20,19=15,26=3,38=1/1,3;
 2/9=110,12=2,17=6,18=5,40=1/2;
 3/5=4,6=6,7=1111,11=2,16=1,25=1,30=1,71=1,74=-5,116=1/1,2,3;
 4//1;
 5/5=2,38=5/2;
 6/7=2,8=2,9=2,10=2,14=1,28=1/1,2;
 7//1,2,3,16;
 1/14=-1,18=20,19=15,26=3/3(2);
 2/9=110/2;
 99//99;
 2/9=110/2;
 3/5=4,6=6,7=1111,11=2,16=1,25=1,30=1,71=1,74=-5,116=1/1,2,3;
 4/5=5,16=3,69=1/1;
 5/5=2,38=5/2;
 7//1,2,3,16;
 1/14=-1,18=20,19=15,26=3/3(-5);
 2/9=110/2;
 6/7=2,8=2,9=2,10=2,14=1,19=2,28=1/1,2;
 99/9=1/99;
 ----------
 C15N2H25O2
 ----------
 Symbolic Z-matrix:
 Charge =  1 Multiplicity = 1
 N                     1.05926  -2.8295    0.70524 
 C                     0.81937   0.51699  -0.20415 
 C                     1.32087  -0.68484   0.12275 
 C                     0.51202  -1.72125   0.40345 
 C                    -0.81577  -1.52028   0.34711 
 C                    -1.31964  -0.31878   0.02048 
 C                    -0.50995   0.71979  -0.26001 
 C                    -1.0028    1.95003  -0.59426 
 O                    -0.16005   3.00802  -0.87464 
 O                    -2.19827   2.16714  -0.64687 
 C                    -0.7419    4.27117  -1.10927 
 C                     0.35411   5.32335  -1.28069 
 N                    -0.26005   6.64639  -1.70969 
 C                    -1.21781   7.23758  -0.69898 
 C                     0.81748   7.64479  -2.07316 
 C                     0.35992  -4.08921   1.04679 
 C                     1.3843   -5.19298   1.35128 
 C                     0.7053   -6.52386   1.71151 
 C                     1.7306   -7.62402   2.01623 
 H                     2.10996  -2.83217   0.70731 
 H                     1.53649   1.32589  -0.42349 
 H                     2.41801  -0.80572   0.15667 
 H                    -1.52538  -2.33479   0.56716 
 H                    -2.41801  -0.22327  -0.007 
 H                    -1.35887   4.22376  -2.0375 
 H                    -1.37614   4.53171  -0.23072 
 H                     0.93289   5.44877  -0.33613 
 H                     1.05709   4.97387  -2.07357 
 H                    -0.8103    6.46111  -2.58078 
 H                    -1.60399   8.21651  -1.06185 
 H                    -2.10694   6.58634  -0.55729 
 H                    -0.71578   7.39455   0.28239 
 H                     0.36158   8.5821   -2.46399 
 H                     1.4706    7.23531  -2.87618 
 H                     1.44706   7.89273  -1.18875 
 H                    -0.28441  -3.92909   1.94316 
 H                    -0.27879  -4.40733   0.1894 
 H                     2.04185  -5.34063   0.46139 
 H                     2.03552  -4.86748   2.19745 
 H                     0.04706  -6.37881   2.60137 
 H                     0.0546   -6.85227   0.86599 
 H                     1.22362  -8.5821    2.27513 
 H                     2.38783  -7.81526   1.13731 
 H                     2.37984  -7.34116   2.87618 
 

 GradGradGradGradGradGradGradGradGradGradGradGradGradGradGradGradGradGrad
 Berny optimization.
 Initialization pass.
                           ----------------------------
                           !    Initial Parameters    !
                           ! (Angstroms and Degrees)  !
 --------------------------                            --------------------------
 ! Name  Definition              Value          Derivative Info.                !
 --------------------------------------------------------------------------------
 ! R1    R(1,4)                  1.2723         estimate D2E/DX2                !
 ! R2    R(1,16)                 1.4807         estimate D2E/DX2                !
 ! R3    R(1,20)                 1.0507         estimate D2E/DX2                !
 ! R4    R(2,3)                  1.3427         estimate D2E/DX2                !
 ! R5    R(2,7)                  1.3459         estimate D2E/DX2                !
 ! R6    R(2,21)                 1.103          estimate D2E/DX2                !
 ! R7    R(3,4)                  1.3443         estimate D2E/DX2                !
 ! R8    R(3,22)                 1.1043         estimate D2E/DX2                !
 ! R9    R(4,5)                  1.3441         estimate D2E/DX2                !
 ! R10   R(5,6)                  1.3432         estimate D2E/DX2                !
 ! R11   R(5,23)                 1.1024         estimate D2E/DX2                !
 ! R12   R(6,7)                  1.3464         estimate D2E/DX2                !
 ! R13   R(6,24)                 1.1029         estimate D2E/DX2                !
 ! R14   R(7,8)                  1.3668         estimate D2E/DX2                !
 ! R15   R(8,9)                  1.3814         estimate D2E/DX2                !
 ! R16   R(8,10)                 1.2162         estimate D2E/DX2                !
 ! R17   R(9,11)                 1.4104         estimate D2E/DX2                !
 ! R18   R(11,12)                1.529          estimate D2E/DX2                !
 ! R19   R(11,25)                1.1156         estimate D2E/DX2                !
 ! R20   R(11,26)                1.1144         estimate D2E/DX2                !
 ! R21   R(12,13)                1.5204         estimate D2E/DX2                !
 ! R22   R(12,27)                1.1149         estimate D2E/DX2                !
 ! R23   R(12,28)                1.1158         estimate D2E/DX2                !
 ! R24   R(13,14)                1.5127         estimate D2E/DX2                !
 ! R25   R(13,15)                1.5133         estimate D2E/DX2                !
 ! R26   R(13,29)                1.0469         estimate D2E/DX2                !
 ! R27   R(14,30)                1.1132         estimate D2E/DX2                !
 ! R28   R(14,31)                1.1112         estimate D2E/DX2                !
 ! R29   R(14,32)                1.1134         estimate D2E/DX2                !
 ! R30   R(15,33)                1.1132         estimate D2E/DX2                !
 ! R31   R(15,34)                1.1131         estimate D2E/DX2                !
 ! R32   R(15,35)                1.1136         estimate D2E/DX2                !
 ! R33   R(16,17)                1.5364         estimate D2E/DX2                !
 ! R34   R(16,36)                1.1155         estimate D2E/DX2                !
 ! R35   R(16,37)                1.1155         estimate D2E/DX2                !
 ! R36   R(17,18)                1.5369         estimate D2E/DX2                !
 ! R37   R(17,38)                1.1163         estimate D2E/DX2                !
 ! R38   R(17,39)                1.1163         estimate D2E/DX2                !
 ! R39   R(18,19)                1.5344         estimate D2E/DX2                !
 ! R40   R(18,40)                1.1163         estimate D2E/DX2                !
 ! R41   R(18,41)                1.1163         estimate D2E/DX2                !
 ! R42   R(19,42)                1.1144         estimate D2E/DX2                !
 ! R43   R(19,43)                1.114          estimate D2E/DX2                !
 ! R44   R(19,44)                1.114          estimate D2E/DX2                !
 ! A1    A(4,1,16)             126.3422         estimate D2E/DX2                !
 ! A2    A(4,1,20)             115.6451         estimate D2E/DX2                !
 ! A3    A(16,1,20)            118.0128         estimate D2E/DX2                !
 ! A4    A(3,2,7)              120.9239         estimate D2E/DX2                !
 ! A5    A(3,2,21)             117.5162         estimate D2E/DX2                !
 ! A6    A(7,2,21)             121.5598         estimate D2E/DX2                !
 ! A7    A(2,3,4)              121.0773         estimate D2E/DX2                !
 ! A8    A(2,3,22)             118.4603         estimate D2E/DX2                !
 ! A9    A(4,3,22)             120.4624         estimate D2E/DX2                !
 ! A10   A(1,4,3)              117.5347         estimate D2E/DX2                !
 ! A11   A(1,4,5)              124.4078         estimate D2E/DX2                !
 ! A12   A(3,4,5)              118.0575         estimate D2E/DX2                !
 ! A13   A(4,5,6)              120.9651         estimate D2E/DX2                !
 ! A14   A(4,5,23)             121.1329         estimate D2E/DX2                !
 ! A15   A(6,5,23)             117.9019         estimate D2E/DX2                !
 ! A16   A(5,6,7)              121.0008         estimate D2E/DX2                !
 ! A17   A(5,6,24)             117.202          estimate D2E/DX2                !
 ! A18   A(7,6,24)             121.7972         estimate D2E/DX2                !
 ! A19   A(2,7,6)              117.9753         estimate D2E/DX2                !
 ! A20   A(2,7,8)              120.1279         estimate D2E/DX2                !
 ! A21   A(6,7,8)              121.8969         estimate D2E/DX2                !
 ! A22   A(7,8,9)              121.2675         estimate D2E/DX2                !
 ! A23   A(7,8,10)             121.7163         estimate D2E/DX2                !
 ! A24   A(9,8,10)             117.0129         estimate D2E/DX2                !
 ! A25   A(8,9,11)             117.9063         estimate D2E/DX2                !
 ! A26   A(9,11,12)            109.8317         estimate D2E/DX2                !
 ! A27   A(9,11,25)            109.1794         estimate D2E/DX2                !
 ! A28   A(9,11,26)            108.2417         estimate D2E/DX2                !
 ! A29   A(12,11,25)           109.4148         estimate D2E/DX2                !
 ! A30   A(12,11,26)           109.6001         estimate D2E/DX2                !
 ! A31   A(25,11,26)           110.5557         estimate D2E/DX2                !
 ! A32   A(11,12,13)           109.9327         estimate D2E/DX2                !
 ! A33   A(11,12,27)           110.7674         estimate D2E/DX2                !
 ! A34   A(11,12,28)           108.406          estimate D2E/DX2                !
 ! A35   A(13,12,27)           110.5407         estimate D2E/DX2                !
 ! A36   A(13,12,28)           109.0592         estimate D2E/DX2                !
 ! A37   A(27,12,28)           108.0718         estimate D2E/DX2                !
 ! A38   A(12,13,14)           114.0358         estimate D2E/DX2                !
 ! A39   A(12,13,15)           110.7481         estimate D2E/DX2                !
 ! A40   A(12,13,29)           107.0432         estimate D2E/DX2                !
 ! A41   A(14,13,15)           110.6994         estimate D2E/DX2                !
 ! A42   A(14,13,29)           106.9978         estimate D2E/DX2                !
 ! A43   A(15,13,29)           106.9284         estimate D2E/DX2                !
 ! A44   A(13,14,30)           110.2147         estimate D2E/DX2                !
 ! A45   A(13,14,31)           111.2697         estimate D2E/DX2                !
 ! A46   A(13,14,32)           111.009          estimate D2E/DX2                !
 ! A47   A(30,14,31)           106.2229         estimate D2E/DX2                !
 ! A48   A(30,14,32)           108.6488         estimate D2E/DX2                !
 ! A49   A(31,14,32)           109.3297         estimate D2E/DX2                !
 ! A50   A(13,15,33)           110.3797         estimate D2E/DX2                !
 ! A51   A(13,15,34)           110.3872         estimate D2E/DX2                !
 ! A52   A(13,15,35)           111.0208         estimate D2E/DX2                !
 ! A53   A(33,15,34)           107.2634         estimate D2E/DX2                !
 ! A54   A(33,15,35)           108.8393         estimate D2E/DX2                !
 ! A55   A(34,15,35)           108.8526         estimate D2E/DX2                !
 ! A56   A(1,16,17)            109.9993         estimate D2E/DX2                !
 ! A57   A(1,16,36)            109.6361         estimate D2E/DX2                !
 ! A58   A(1,16,37)            109.618          estimate D2E/DX2                !
 ! A59   A(17,16,36)           109.2086         estimate D2E/DX2                !
 ! A60   A(17,16,37)           109.2216         estimate D2E/DX2                !
 ! A61   A(36,16,37)           109.1388         estimate D2E/DX2                !
 ! A62   A(16,17,18)           111.9637         estimate D2E/DX2                !
 ! A63   A(16,17,38)           109.2559         estimate D2E/DX2                !
 ! A64   A(16,17,39)           109.2516         estimate D2E/DX2                !
 ! A65   A(18,17,38)           109.4245         estimate D2E/DX2                !
 ! A66   A(18,17,39)           109.4254         estimate D2E/DX2                !
 ! A67   A(38,17,39)           107.4106         estimate D2E/DX2                !
 ! A68   A(17,18,19)           111.8522         estimate D2E/DX2                !
 ! A69   A(17,18,40)           109.562          estimate D2E/DX2                !
 ! A70   A(17,18,41)           109.557          estimate D2E/DX2                !
 ! A71   A(19,18,40)           109.2002         estimate D2E/DX2                !
 ! A72   A(19,18,41)           109.207          estimate D2E/DX2                !
 ! A73   A(40,18,41)           107.3544         estimate D2E/DX2                !
 ! A74   A(18,19,42)           111.0108         estimate D2E/DX2                !
 ! A75   A(18,19,43)           111.1387         estimate D2E/DX2                !
 ! A76   A(18,19,44)           111.1416         estimate D2E/DX2                !
 ! A77   A(42,19,43)           107.7031         estimate D2E/DX2                !
 ! A78   A(42,19,44)           107.7025         estimate D2E/DX2                !
 ! A79   A(43,19,44)           107.9866         estimate D2E/DX2                !
 ! D1    D(16,1,4,3)           179.9977         estimate D2E/DX2                !
 ! D2    D(16,1,4,5)            -0.0118         estimate D2E/DX2                !
 ! D3    D(20,1,4,3)             0.0077         estimate D2E/DX2                !
 ! D4    D(20,1,4,5)           179.9982         estimate D2E/DX2                !
 ! D5    D(4,1,16,17)         -179.8707         estimate D2E/DX2                !
 ! D6    D(4,1,16,36)          -59.7649         estimate D2E/DX2                !
 ! D7    D(4,1,16,37)           60.0189         estimate D2E/DX2                !
 ! D8    D(20,1,16,17)           0.1191         estimate D2E/DX2                !
 ! D9    D(20,1,16,36)         120.2248         estimate D2E/DX2                !
 ! D10   D(20,1,16,37)        -119.9913         estimate D2E/DX2                !
 ! D11   D(7,2,3,4)              0.0244         estimate D2E/DX2                !
 ! D12   D(7,2,3,22)          -179.974          estimate D2E/DX2                !
 ! D13   D(21,2,3,4)          -179.9805         estimate D2E/DX2                !
 ! D14   D(21,2,3,22)            0.0211         estimate D2E/DX2                !
 ! D15   D(3,2,7,6)             -0.0605         estimate D2E/DX2                !
 ! D16   D(3,2,7,8)            179.9829         estimate D2E/DX2                !
 ! D17   D(21,2,7,6)           179.9445         estimate D2E/DX2                !
 ! D18   D(21,2,7,8)            -0.012          estimate D2E/DX2                !
 ! D19   D(2,3,4,1)           -179.9871         estimate D2E/DX2                !
 ! D20   D(2,3,4,5)              0.0217         estimate D2E/DX2                !
 ! D21   D(22,3,4,1)             0.0112         estimate D2E/DX2                !
 ! D22   D(22,3,4,5)          -179.9799         estimate D2E/DX2                !
 ! D23   D(1,4,5,6)            179.979          estimate D2E/DX2                !
 ! D24   D(1,4,5,23)            -0.0171         estimate D2E/DX2                !
 ! D25   D(3,4,5,6)             -0.0305         estimate D2E/DX2                !
 ! D26   D(3,4,5,23)           179.9734         estimate D2E/DX2                !
 ! D27   D(4,5,6,7)             -0.0066         estimate D2E/DX2                !
 ! D28   D(4,5,6,24)           179.9965         estimate D2E/DX2                !
 ! D29   D(23,5,6,7)           179.9896         estimate D2E/DX2                !
 ! D30   D(23,5,6,24)           -0.0073         estimate D2E/DX2                !
 ! D31   D(5,6,7,2)              0.0518         estimate D2E/DX2                !
 ! D32   D(5,6,7,8)           -179.9925         estimate D2E/DX2                !
 ! D33   D(24,6,7,2)          -179.9514         estimate D2E/DX2                !
 ! D34   D(24,6,7,8)             0.0043         estimate D2E/DX2                !
 ! D35   D(2,7,8,9)             -0.2947         estimate D2E/DX2                !
 ! D36   D(2,7,8,10)          -179.6229         estimate D2E/DX2                !
 ! D37   D(6,7,8,9)            179.7505         estimate D2E/DX2                !
 ! D38   D(6,7,8,10)             0.4223         estimate D2E/DX2                !
 ! D39   D(7,8,9,11)          -175.1567         estimate D2E/DX2                !
 ! D40   D(10,8,9,11)            4.2018         estimate D2E/DX2                !
 ! D41   D(8,9,11,12)          175.186          estimate D2E/DX2                !
 ! D42   D(8,9,11,25)          -64.8422         estimate D2E/DX2                !
 ! D43   D(8,9,11,26)           55.5599         estimate D2E/DX2                !
 ! D44   D(9,11,12,13)         172.7534         estimate D2E/DX2                !
 ! D45   D(9,11,12,27)         -64.7884         estimate D2E/DX2                !
 ! D46   D(9,11,12,28)          53.6258         estimate D2E/DX2                !
 ! D47   D(25,11,12,13)         52.925          estimate D2E/DX2                !
 ! D48   D(25,11,12,27)        175.3832         estimate D2E/DX2                !
 ! D49   D(25,11,12,28)        -66.2027         estimate D2E/DX2                !
 ! D50   D(26,11,12,13)        -68.4533         estimate D2E/DX2                !
 ! D51   D(26,11,12,27)         54.0048         estimate D2E/DX2                !
 ! D52   D(26,11,12,28)        172.419          estimate D2E/DX2                !
 ! D53   D(11,12,13,14)         62.3328         estimate D2E/DX2                !
 ! D54   D(11,12,13,15)       -172.0185         estimate D2E/DX2                !
 ! D55   D(11,12,13,29)        -55.7995         estimate D2E/DX2                !
 ! D56   D(27,12,13,14)        -60.2593         estimate D2E/DX2                !
 ! D57   D(27,12,13,15)         65.3893         estimate D2E/DX2                !
 ! D58   D(27,12,13,29)       -178.3916         estimate D2E/DX2                !
 ! D59   D(28,12,13,14)       -178.9403         estimate D2E/DX2                !
 ! D60   D(28,12,13,15)        -53.2917         estimate D2E/DX2                !
 ! D61   D(28,12,13,29)         62.9274         estimate D2E/DX2                !
 ! D62   D(12,13,14,30)        178.2386         estimate D2E/DX2                !
 ! D63   D(12,13,14,31)        -64.1927         estimate D2E/DX2                !
 ! D64   D(12,13,14,32)         57.8121         estimate D2E/DX2                !
 ! D65   D(15,13,14,30)         52.5643         estimate D2E/DX2                !
 ! D66   D(15,13,14,31)        170.133          estimate D2E/DX2                !
 ! D67   D(15,13,14,32)        -67.8622         estimate D2E/DX2                !
 ! D68   D(29,13,14,30)        -63.6031         estimate D2E/DX2                !
 ! D69   D(29,13,14,31)         53.9656         estimate D2E/DX2                !
 ! D70   D(29,13,14,32)        175.9704         estimate D2E/DX2                !
 ! D71   D(12,13,15,33)        175.4456         estimate D2E/DX2                !
 ! D72   D(12,13,15,34)         57.0341         estimate D2E/DX2                !
 ! D73   D(12,13,15,35)        -63.771          estimate D2E/DX2                !
 ! D74   D(14,13,15,33)        -57.055          estimate D2E/DX2                !
 ! D75   D(14,13,15,34)       -175.4665         estimate D2E/DX2                !
 ! D76   D(14,13,15,35)         63.7284         estimate D2E/DX2                !
 ! D77   D(29,13,15,33)         59.1554         estimate D2E/DX2                !
 ! D78   D(29,13,15,34)        -59.2561         estimate D2E/DX2                !
 ! D79   D(29,13,15,35)        179.9388         estimate D2E/DX2                !
 ! D80   D(1,16,17,18)        -179.9687         estimate D2E/DX2                !
 ! D81   D(1,16,17,38)         -58.588          estimate D2E/DX2                !
 ! D82   D(1,16,17,39)          58.6525         estimate D2E/DX2                !
 ! D83   D(36,16,17,18)         59.6669         estimate D2E/DX2                !
 ! D84   D(36,16,17,38)       -178.9524         estimate D2E/DX2                !
 ! D85   D(36,16,17,39)        -61.7119         estimate D2E/DX2                !
 ! D86   D(37,16,17,18)        -59.6184         estimate D2E/DX2                !
 ! D87   D(37,16,17,38)         61.7623         estimate D2E/DX2                !
 ! D88   D(37,16,17,39)        179.0027         estimate D2E/DX2                !
 ! D89   D(16,17,18,19)       -179.9527         estimate D2E/DX2                !
 ! D90   D(16,17,18,40)        -58.7187         estimate D2E/DX2                !
 ! D91   D(16,17,18,41)         58.8081         estimate D2E/DX2                !
 ! D92   D(38,17,18,19)         58.7638         estimate D2E/DX2                !
 ! D93   D(38,17,18,40)        179.9979         estimate D2E/DX2                !
 ! D94   D(38,17,18,41)        -62.4754         estimate D2E/DX2                !
 ! D95   D(39,17,18,19)        -58.674          estimate D2E/DX2                !
 ! D96   D(39,17,18,40)         62.56           estimate D2E/DX2                !
 ! D97   D(39,17,18,41)       -179.9133         estimate D2E/DX2                !
 ! D98   D(17,18,19,42)       -179.9814         estimate D2E/DX2                !
 ! D99   D(17,18,19,43)        -60.1304         estimate D2E/DX2                !
 ! D100  D(17,18,19,44)         60.1665         estimate D2E/DX2                !
 ! D101  D(40,18,19,42)         58.5756         estimate D2E/DX2                !
 ! D102  D(40,18,19,43)        178.4266         estimate D2E/DX2                !
 ! D103  D(40,18,19,44)        -61.2765         estimate D2E/DX2                !
 ! D104  D(41,18,19,42)        -58.54           estimate D2E/DX2                !
 ! D105  D(41,18,19,43)         61.311          estimate D2E/DX2                !
 ! D106  D(41,18,19,44)       -178.3921         estimate D2E/DX2                !
 --------------------------------------------------------------------------------
 Trust Radius=3.00D-01 FncErr=1.00D-07 GrdErr=1.00D-06
 Number of steps in this run=    239 maximum allowed number of steps=    264.
 GradGradGradGradGradGradGradGradGradGradGradGradGradGradGradGradGradGrad

                          Input orientation:                          
 ---------------------------------------------------------------------
 Center     Atomic      Atomic             Coordinates (Angstroms)
 Number     Number       Type             X           Y           Z
 ---------------------------------------------------------------------
      1          7           0        1.059260   -2.829500    0.705237
      2          6           0        0.819373    0.516993   -0.204150
      3          6           0        1.320873   -0.684840    0.122749
      4          6           0        0.512024   -1.721251    0.403448
      5          6           0       -0.815774   -1.520281    0.347110
      6          6           0       -1.319642   -0.318783    0.020482
      7          6           0       -0.509953    0.719790   -0.260010
      8          6           0       -1.002795    1.950028   -0.594259
      9          8           0       -0.160045    3.008020   -0.874644
     10          8           0       -2.198267    2.167139   -0.646868
     11          6           0       -0.741896    4.271166   -1.109271
     12          6           0        0.354107    5.323351   -1.280688
     13          7           0       -0.260046    6.646391   -1.709685
     14          6           0       -1.217805    7.237584   -0.698979
     15          6           0        0.817483    7.644786   -2.073163
     16          6           0        0.359921   -4.089207    1.046791
     17          6           0        1.384295   -5.192984    1.351276
     18          6           0        0.705301   -6.523863    1.711510
     19          6           0        1.730601   -7.624015    2.016229
     20          1           0        2.109960   -2.832172    0.707311
     21          1           0        1.536491    1.325891   -0.423492
     22          1           0        2.418012   -0.805723    0.156674
     23          1           0       -1.525383   -2.334788    0.567160
     24          1           0       -2.418012   -0.223269   -0.006996
     25          1           0       -1.358871    4.223762   -2.037497
     26          1           0       -1.376141    4.531709   -0.230724
     27          1           0        0.932894    5.448767   -0.336125
     28          1           0        1.057087    4.973870   -2.073572
     29          1           0       -0.810301    6.461111   -2.580778
     30          1           0       -1.603992    8.216507   -1.061851
     31          1           0       -2.106938    6.586336   -0.557285
     32          1           0       -0.715783    7.394551    0.282389
     33          1           0        0.361583    8.582095   -2.463993
     34          1           0        1.470601    7.235305   -2.876180
     35          1           0        1.447060    7.892730   -1.188745
     36          1           0       -0.284405   -3.929085    1.943160
     37          1           0       -0.278786   -4.407326    0.189395
     38          1           0        2.041846   -5.340626    0.461386
     39          1           0        2.035525   -4.867475    2.197454
     40          1           0        0.047056   -6.378808    2.601371
     41          1           0        0.054595   -6.852272    0.865985
     42          1           0        1.223618   -8.582095    2.275126
     43          1           0        2.387832   -7.815264    1.137312
     44          1           0        2.379837   -7.341161    2.876180
 ---------------------------------------------------------------------
                    Distance matrix (angstroms):
                    1          2          3          4          5
     1  N    0.000000
     2  C    3.476140   0.000000
     3  C    2.237700   1.342672   0.000000
     4  C    1.272305   2.339525   1.344313   0.000000
     5  C    2.314749   2.669846   2.305116   1.344102   0.000000
     6  C    3.525871   2.307459   2.667729   2.338499   1.343193
     7  C    3.998949   1.345866   2.339105   2.728240   2.340948
     8  C    5.365133   2.350760   3.585535   4.094922   3.600583
     9  O    6.169228   2.759355   4.101844   4.944815   4.735839
    10  O    6.116050   3.467727   4.594610   4.854731   4.061569
    11  C    7.546924   4.165408   5.507711   6.306322   5.972216
    12  C    8.420815   4.947371   6.245209   7.244837   7.131174
    13  N    9.867367   6.403226   7.720367   8.664806   8.440010
    14  C   10.416479   7.039978   8.359720   9.190668   8.829277
    15  C   10.839217   7.368762   8.628911   9.692758   9.618924
    16  C    1.480742   4.795105   3.656090   2.458504   2.910531
    17  C    2.471653   5.944941   4.672972   3.702994   4.397431
    18  C    3.845282   7.297700   6.082539   4.981311   5.404728
    19  C    5.015653   8.487428   7.204533   6.239280   6.820964
    20  H    1.050705   3.703145   2.361230   1.969741   3.226565
    21  H    4.332327   1.103035   2.094734   3.319403   3.771959
    22  H    2.498560   2.106043   1.104300   2.128821   3.317263
    23  H    2.635182   3.771665   3.319790   2.134070   1.102447
    24  H    4.403537   3.326788   3.769502   3.316252   2.091602
    25  H    7.944712   4.673975   5.995170   6.693403   6.243023
    26  H    7.809904   4.575908   5.883129   6.562534   6.105283
    27  H    8.344466   4.934845   6.162972   7.220336   7.217498
    28  H    8.283379   4.838905   6.075723   7.159425   7.179227
    29  H   10.030384   6.605811   7.931934   8.809381   8.501481
    30  H   11.499121   8.117319   9.444156  10.265654   9.869726
    31  H   10.013827   6.747216   8.067362   8.763445   8.258467
    32  H   10.385605   7.063585   8.333667   9.198914   8.915628
    33  H   11.864033   8.388226   9.668896  10.695971  10.552084
    34  H   10.690933   7.259446   8.470224   9.586174   9.606112
    35  H   10.895126   7.467591   8.678171   9.789689   9.802247
    36  H    2.132364   5.059335   4.051659   2.807052   2.938038
    37  H    2.132134   5.060608   4.052191   2.808238   2.940792
    38  H    2.707525   6.020721   4.723433   3.929833   4.772220
    39  H    2.707978   6.019902   4.723300   3.929152   4.770470
    40  H    4.149394   7.484617   6.339357   5.171064   5.425076
    41  H    4.149444   7.485729   6.339801   5.172094   5.427421
    42  H    5.965225   9.439472   8.185892   7.147078   7.599051
    43  H    5.177802   8.584060   7.280844   6.418271   7.107343
    44  H    5.178031   8.583360   7.280755   6.417672   7.105686
                    6          7          8          9         10
     6  C    0.000000
     7  C    1.346442   0.000000
     8  C    2.371877   1.366785   0.000000
     9  O    3.635042   2.395038   1.381373   0.000000
    10  O    2.719769   2.257185   1.216165   2.216599   0.000000
    11  C    4.762118   3.658868   2.391859   1.410368   2.600339
    12  C    6.027284   4.793867   3.700226   2.406238   4.108286
    13  N    7.254645   6.106440   4.883818   3.734305   4.994995
    14  C    7.591224   6.570798   5.292962   4.363362   5.164633
    15  C    8.507002   7.280466   6.158802   4.887904   6.413555
    16  C    4.253274   5.058741   6.404873   7.371086   6.968118
    17  C    5.730630   6.414461   7.778555   8.636908   8.426075
    18  C    6.742625   7.604883   8.946563   9.914323   9.461827
    19  C    8.164154   8.934228  10.293124  11.179081  10.880937
    20  H    4.307090   4.518417   5.852586   6.462457   6.737042
    21  H    3.325592   2.140565   2.620435   2.431323   3.834842
    22  H    3.771699   3.327731   4.456454   4.717481   5.549200
    23  H    2.098919   3.323515   4.470083   5.699872   4.711049
    24  H    1.102857   2.143377   2.659123   4.036392   2.484306
    25  H    4.987137   4.019694   2.716541   2.065778   2.620712
    26  H    4.857321   3.909203   2.633747   2.053083   2.537766
    27  H    6.202074   4.944777   4.006832   2.727960   4.546407
    28  H    6.168150   4.882808   3.946530   2.604497   4.528858
    29  H    7.279625   6.199915   4.932867   3.906093   4.909649
    30  H    8.608338   7.618441   6.312594   5.408176   6.092637
    31  H    6.973831   6.087290   4.766115   4.086007   4.421048
    32  H    7.741367   6.699925   5.522112   4.570473   5.512451
    33  H    9.392804   8.211757   7.024368   5.819660   7.141879
    34  H    8.558058   7.295127   6.265701   4.953291   6.642043
    35  H    8.749047   7.492898   6.455301   5.151877   6.809143
    36  H    4.219323   5.149453   6.443489   7.488585   6.894567
    37  H    4.222333   5.151963   6.446259   7.492238   6.899807
    38  H    6.059118   6.615190   7.971064   8.736887   8.693292
    39  H    6.056975   6.613329   7.968902   8.733942   8.689129
    40  H    6.727017   7.673842   8.982413  10.011898   9.414125
    41  H    6.729776   7.676112   8.985036  10.015050   9.418805
    42  H    8.934983   9.795777  11.140732  12.089927  11.653042
    43  H    8.437411   9.121229  10.481203  11.299696  11.129419
    44  H    8.435339   9.119512  10.479138  11.297134  11.125586
                   11         12         13         14         15
    11  C    0.000000
    12  C    1.528954   0.000000
    13  N    2.496872   1.520413   0.000000
    14  C    3.032238   2.544323   1.512725   0.000000
    15  C    3.839539   2.496356   1.513267   2.489296   0.000000
    16  C    8.703932   9.696053  11.101152  11.568627  12.150311
    17  C   10.007253  10.889528  12.338725  12.864427  13.298737
    18  C   11.250948  12.224282  13.641556  14.102702  14.665843
    19  C   12.545012  13.431258  14.882527  15.392614  15.833294
    20  H    7.867049   8.575996  10.064887  10.698208  10.916418
    21  H    3.786289   4.255879   5.761038   6.527645   6.570146
    22  H    6.112482   6.625048   8.135680   8.868263   8.885098
    23  H    6.860241   8.099020   9.351293   9.660643  10.585472
    24  H    4.921821   6.330239   7.399202   7.588390   8.754642
    25  H    1.115576   2.171670   2.680300   3.300705   4.054774
    26  H    1.114448   2.173219   2.811561   2.750653   4.230581
    27  H    2.188474   1.114864   2.178090   2.820822   2.802342
    28  H    2.158705   1.115788   2.159764   3.491281   2.681642
    29  H    2.639294   2.083405   1.046858   2.076087   2.075678
    30  H    4.038709   3.500342   2.165905   1.113152   2.685732
    31  H    2.743727   2.859228   2.177761   1.111197   3.459832
    32  H    3.419493   2.806732   2.176189   1.113440   2.821728
    33  H    4.651564   3.466941   2.168491   2.723500   1.113167
    34  H    4.099174   2.729051   2.168564   3.459442   1.113137
    35  H    4.232443   2.793691   2.176913   2.787578   1.113570
    36  H    8.761892   9.818781  11.188591  11.512890  12.300386
    37  H    8.787333   9.861429  11.215682  11.716437  12.311555
    38  H   10.129300  10.936347  12.397614  13.045426  13.286983
    39  H   10.107584  10.898512  12.373540  12.864911  13.276990
    40  H   11.305452  12.333093  13.723532  14.067634  14.802230
    41  H   11.325498  12.367041  13.745799  14.233487  14.811660
    42  H   13.435911  14.379196  15.810970  16.280912  16.804292
    43  H   12.685587  13.513177  14.975183  15.587200  15.867775
    44  H   12.667880  13.482322  14.954957  15.435822  15.859242
                   16         17         18         19         20
    16  C    0.000000
    17  C    1.536352   0.000000
    18  C    2.547290   1.536893   0.000000
    19  C    3.913239   2.544013   1.534415   0.000000
    20  H    2.181289   2.552394   4.075545   4.981861   0.000000
    21  H    5.733178   6.757862   8.177270   9.278509   4.347076
    22  H    3.976093   4.663014   6.168308   7.100675   2.122403
    23  H    2.619619   4.153354   4.881991   6.377864   3.671887
    24  H    4.875742   6.403164   7.239187   8.722125   5.274385
    25  H    9.031751  10.377083  11.568375  12.897572   8.327843
    26  H    8.886290  10.231930  11.416232  12.746069   8.201192
    27  H    9.654724  10.784153  12.148600  13.306673   8.429009
    28  H    9.610519  10.733199  12.109850  13.262232   8.353212
    29  H   11.217749  12.493808  13.759736  15.032612  10.281272
    30  H   12.638589  13.948745  15.175733  16.477749  11.789685
    31  H   11.073648  12.433169  13.599023  14.942682  10.396621
    32  H   11.559332  12.806205  14.063574  15.314970  10.618439
    33  H   13.148669  14.330213  15.676190  16.869635  11.974952
    34  H   12.036107  13.127879  14.524025  15.646171  10.705339
    35  H   12.237087  13.330100  14.724124  15.846818  10.911370
    36  H    1.115470   2.175391   2.786764   4.209287   2.909214
    37  H    1.115470   2.175561   2.786573   4.209756   2.907826
    38  H    2.176608   1.116278   2.179269   2.779978   2.521400
    39  H    2.176551   1.116277   2.179279   2.779269   2.523594
    40  H    2.785117   2.181083   1.116324   2.174225   4.519033
    41  H    2.785757   2.181020   1.116326   2.174315   4.517843
    42  H    4.737174   3.516446   2.196050   1.114440   6.025385
    43  H    4.243126   2.815887   2.197346   1.114013   5.009323
    44  H    4.242868   2.816221   2.197386   1.114015   5.010769
                   21         22         23         24         25
    21  H    0.000000
    22  H    2.378539   0.000000
    23  H    4.874119   4.249341   0.000000
    24  H    4.267489   4.873722   2.363251   0.000000
    25  H    4.402930   6.661453   7.058792   5.002079   0.000000
    26  H    4.335649   6.560019   6.914309   4.872922   1.832910
    27  H    4.167741   6.447253   8.212355   6.596127   3.106041
    28  H    4.032412   6.342697   8.188962   6.584626   2.529983
    29  H    6.044154   8.409669   9.369562   7.340983   2.366815
    30  H    7.599390   9.952987  10.676595   8.544306   4.117521
    31  H    6.400372   8.696404   9.010496   6.838882   2.886588
    32  H    6.511501   8.779577   9.767117   7.811050   3.981122
    33  H    7.628666   9.961321  11.485942   9.554968   4.704990
    34  H    6.398531   8.646035  10.602792   8.887286   4.216479
    35  H    6.611882   8.855280  10.794477   9.066684   4.696270
    36  H    6.044127   4.499998   2.444419   4.699836   9.136138
    37  H    6.044885   4.499482   2.447882   4.703317   8.978937
    38  H    6.743949   4.560668   4.665980   6.804194  10.454033
    39  H    6.743603   4.561678   4.663950   6.801635  10.588075
    40  H    8.410149   6.531252   4.792147   7.125363  11.658054
    41  H    8.410774   6.530667   4.795132   7.128784  11.537184
    42  H   10.273686   8.147784   7.035837   9.398911  13.757105
    43  H    9.312444   7.077869   6.758250   9.057812  13.002128
    44  H    9.312189   7.078780   6.756189   9.055189  13.109905
                   26         27         28         29         30
    26  H    0.000000
    27  H    2.486714   0.000000
    28  H    3.084184   1.805456   0.000000
    29  H    3.092818   3.016958   2.440549   0.000000
    30  H    3.784234   3.823984   4.315045   2.453263   0.000000
    31  H    2.205039   3.253237   3.861376   2.406548   1.779044
    32  H    2.982486   2.624266   3.814881   3.012967   1.808731
    33  H    4.940931   3.830400   3.695327   2.426010   2.441955
    34  H    4.734111   3.151623   2.435008   2.426758   3.702387
    35  H    4.492742   2.638993   3.074856   3.013796   3.070806
    36  H    8.803561   9.727336   9.858821  11.344547  12.581208
    37  H    9.015932   9.944190   9.742300  11.228503  12.754723
    38  H   10.470179  10.875514  10.666986  12.516809  14.121198
    39  H   10.289809  10.679872  10.772700  12.620106  13.966379
    40  H   11.361586  12.219048  12.319032  13.872752  15.138308
    41  H   11.525832  12.390805  12.227167  13.779492  15.281870
    42  H   13.601834  14.274741  14.237384  15.937838  17.358681
    43  H   12.980245  13.424693  13.253023  15.095268  16.666993
    44  H   12.834534  13.266303  13.338280  15.180846  16.535417
                   31         32         33         34         35
    31  H    0.000000
    32  H    1.814821   0.000000
    33  H    3.702997   3.180187   0.000000
    34  H    4.312449   3.844762   1.792669   0.000000
    35  H    3.838790   2.662763   1.811006   1.811132   0.000000
    36  H   10.961201  11.452903  13.280434  12.286158  12.351604
    37  H   11.169614  11.810331  13.273116  12.165893  12.496767
    38  H   12.668959  13.031550  14.325616  13.023813  13.349098
    39  H   12.487529  12.711981  14.332554  13.135379  13.214971
    40  H   13.517091  13.988031  15.798274  14.743613  14.832457
    41  H   13.685544  14.279567  15.792488  14.644750  14.952457
    42  H   15.785958  16.216828  17.827276  16.636920  16.836514
    43  H   15.181591  15.546761  16.910011  15.603495  15.907126
    44  H   15.029804  15.279130  16.915699  15.696806  15.794465
                   36         37         38         39         40
    36  H    0.000000
    37  H    1.817811   0.000000
    38  H    3.098313   2.516021   0.000000
    39  H    2.515416   3.098399   1.799401   0.000000
    40  H    2.558173   3.132179   3.104278   2.530076   0.000000
    41  H    3.133728   2.558648   2.529415   3.104241   1.798830
    42  H    4.902534   4.902671   3.803455   3.803108   2.518970
    43  H    4.784624   4.429835   2.588516   3.152377   3.112251
    44  H    4.428428   4.784817   3.153983   2.588116   2.538407
                   41         42         43         44
    41  H    0.000000
    42  H    2.518845   0.000000
    43  H    2.538694   1.799457   0.000000
    44  H    3.112338   1.799451   1.802359   0.000000
 Stoichiometry    C15H25N2O2(1+)
 Framework group  C1[X(C15H25N2O2)]
 Deg. of freedom   126
 Full point group                 C1      NOp   1
 Largest Abelian subgroup         C1      NOp   1
 Largest concise Abelian subgroup C1      NOp   1
                         Standard orientation:                         
 ---------------------------------------------------------------------
 Center     Atomic      Atomic             Coordinates (Angstroms)
 Number     Number       Type             X           Y           Z
 ---------------------------------------------------------------------
      1          7           0       -3.559469   -0.589548    0.014746
      2          6           0       -0.088352   -0.747861   -0.084388
      3          6           0       -1.382097   -1.103385   -0.033460
      4          6           0       -2.356774   -0.177546   -0.035619
      5          6           0       -1.999033    1.116901   -0.090764
      6          6           0       -0.705405    1.474826   -0.141595
      7          6           0        0.271217    0.547946   -0.138692
      8          6           0        1.593127    0.891530   -0.189717
      9          8           0        2.584740   -0.070144   -0.180915
     10          8           0        1.950600    2.053179   -0.232632
     11          6           0        3.925480    0.364627   -0.130647
     12          6           0        4.857553   -0.841177   -0.008263
     13          7           0        6.304812   -0.392435   -0.133691
     14          6           0        6.750690    0.560863    0.952934
     15          6           0        7.231456   -1.586296   -0.211182
     16          6           0       -4.776397    0.254026    0.022755
     17          6           0       -6.029485   -0.632012    0.094058
     18          6           0       -7.321811    0.199753    0.104085
     19          6           0       -8.571555   -0.687559    0.176508
     20          1           0       -3.681639   -1.632383    0.054139
     21          1           0        0.662694   -1.555694   -0.079852
     22          1           0       -1.631122   -2.178340    0.010545
     23          1           0       -2.756514    1.917892   -0.095669
     24          1           0       -0.482246    2.553981   -0.185392
     25          1           0        4.164447    0.924674   -1.065393
     26          1           0        4.045790    1.022166    0.761072
     27          1           0        4.694512   -1.370231    0.959436
     28          1           0        4.623692   -1.552624   -0.835387
     29          1           0        6.389773    0.118917   -1.043203
     30          1           0        7.824308    0.822337    0.818466
     31          1           0        6.189439    1.518659    0.904119
     32          1           0        6.618317    0.107095    1.961060
     33          1           0        8.279240   -1.253100   -0.385170
     34          1           0        6.947619   -2.242761   -1.064155
     35          1           0        7.194966   -2.181955    0.728976
     36          1           0       -4.756098    0.932887    0.907632
     37          1           0       -4.812931    0.867557   -0.908116
     38          1           0       -6.040724   -1.324873   -0.781095
     39          1           0       -5.984634   -1.259422    1.016240
     40          1           0       -7.312986    0.893565    0.978573
     41          1           0       -7.369674    0.826978   -0.818131
     42          1           0       -9.499720   -0.070754    0.182651
     43          1           0       -8.627432   -1.374990   -0.698329
     44          1           0       -8.570880   -1.307800    1.101889
 ---------------------------------------------------------------------
 Rotational constants (GHZ):      1.7398683      0.0854684      0.0823529
 Standard basis: 6-311++G(d,p) (5D, 7F)
 There are   612 symmetry adapted cartesian basis functions of A   symmetry.
 There are   593 symmetry adapted basis functions of A   symmetry.
   593 basis functions,   909 primitive gaussians,   612 cartesian basis functions
    72 alpha electrons       72 beta electrons
       nuclear repulsion energy      1364.9165906375 Hartrees.
 NAtoms=   44 NActive=   44 NUniq=   44 SFac= 1.00D+00 NAtFMM=   60 NAOKFM=F Big=F
 Integral buffers will be    131072 words long.
 Raffenetti 2 integral format.
 Two-electron integral symmetry is turned on.
 One-electron integrals computed using PRISM.
 NBasis=   593 RedAO= T EigKep=  1.60D-06  NBF=   593
 NBsUse=   589 1.00D-06 EigRej=  8.88D-07 NBFU=   589
 ExpMin= 3.60D-02 ExpMax= 8.59D+03 ExpMxC= 1.30D+03 IAcc=3 IRadAn=         5 AccDes= 0.00D+00
 Harris functional with IExCor=  402 and IRadAn=       5 diagonalized for initial guess.
 HarFok:  IExCor=  402 AccDes= 0.00D+00 IRadAn=         5 IDoV= 1 UseB2=F ITyADJ=14
 ICtDFT=  3500011 ScaDFX=  1.000000  1.000000  1.000000  1.000000
 FoFCou: FMM=F IPFlag=           0 FMFlag=      100000 FMFlg1=           0
         NFxFlg=           0 DoJE=T BraDBF=F KetDBF=T FulRan=T
         wScrn=  0.000000 ICntrl=     500 IOpCl=  0 I1Cent=   200000004 NGrid=           0
         NMat0=    1 NMatS0=      1 NMatT0=    0 NMatD0=    1 NMtDS0=    0 NMtDT0=    0
 Petite list used in FoFCou.
 Keep R1 ints in memory in canonical form, NReq=15625723287.
 Requested convergence on RMS density matrix=1.00D-08 within 128 cycles.
 Requested convergence on MAX density matrix=1.00D-06.
 Requested convergence on             energy=1.00D-06.
 No special actions if energy rises.
 SCF Done:  E(RB3LYP) =  -846.576413070     A.U. after   16 cycles
            NFock= 16  Conv=0.66D-08     -V/T= 2.0037

 **********************************************************************

            Population analysis using the SCF density.

 **********************************************************************

 Orbital symmetries:
       Occupied  (A) (A) (A) (A) (A) (A) (A) (A) (A) (A) (A) (A)
                 (A) (A) (A) (A) (A) (A) (A) (A) (A) (A) (A) (A)
                 (A) (A) (A) (A) (A) (A) (A) (A) (A) (A) (A) (A)
                 (A) (A) (A) (A) (A) (A) (A) (A) (A) (A) (A) (A)
                 (A) (A) (A) (A) (A) (A) (A) (A) (A) (A) (A) (A)
                 (A) (A) (A) (A) (A) (A) (A) (A) (A) (A) (A) (A)
       Virtual   (A) (A) (A) (A) (A) (A) (A) (A) (A) (A) (A) (A)
                 (A) (A) (A) (A) (A) (A) (A) (A) (A) (A) (A) (A)
                 (A) (A) (A) (A) (A) (A) (A) (A) (A) (A) (A) (A)
                 (A) (A) (A) (A) (A) (A) (A) (A) (A) (A) (A) (A)
                 (A) (A) (A) (A) (A) (A) (A) (A) (A) (A) (A) (A)
                 (A) (A) (A) (A) (A) (A) (A) (A) (A) (A) (A) (A)
                 (A) (A) (A) (A) (A) (A) (A) (A) (A) (A) (A) (A)
                 (A) (A) (A) (A) (A) (A) (A) (A) (A) (A) (A) (A)
                 (A) (A) (A) (A) (A) (A) (A) (A) (A) (A) (A) (A)
                 (A) (A) (A) (A) (A) (A) (A) (A) (A) (A) (A) (A)
                 (A) (A) (A) (A) (A) (A) (A) (A) (A) (A) (A) (A)
                 (A) (A) (A) (A) (A) (A) (A) (A) (A) (A) (A) (A)
                 (A) (A) (A) (A) (A) (A) (A) (A) (A) (A) (A) (A)
                 (A) (A) (A) (A) (A) (A) (A) (A) (A) (A) (A) (A)
                 (A) (A) (A) (A) (A) (A) (A) (A) (A) (A) (A) (A)
                 (A) (A) (A) (A) (A) (A) (A) (A) (A) (A) (A) (A)
                 (A) (A) (A) (A) (A) (A) (A) (A) (A) (A) (A) (A)
                 (A) (A) (A) (A) (A) (A) (A) (A) (A) (A) (A) (A)
                 (A) (A) (A) (A) (A) (A) (A) (A) (A) (A) (A) (A)
                 (A) (A) (A) (A) (A) (A) (A) (A) (A) (A) (A) (A)
                 (A) (A) (A) (A) (A) (A) (A) (A) (A) (A) (A) (A)
                 (A) (A) (A) (A) (A) (A) (A) (A) (A) (A) (A) (A)
                 (A) (A) (A) (A) (A) (A) (A) (A) (A) (A) (A) (A)
                 (A) (A) (A) (A) (A) (A) (A) (A) (A) (A) (A) (A)
                 (A) (A) (A) (A) (A) (A) (A) (A) (A) (A) (A) (A)
                 (A) (A) (A) (A) (A) (A) (A) (A) (A) (A) (A) (A)
                 (A) (A) (A) (A) (A) (A) (A) (A) (A) (A) (A) (A)
                 (A) (A) (A) (A) (A) (A) (A) (A) (A) (A) (A) (A)
                 (A) (A) (A) (A) (A) (A) (A) (A) (A) (A) (A) (A)
                 (A) (A) (A) (A) (A) (A) (A) (A) (A) (A) (A) (A)
                 (A) (A) (A) (A) (A) (A) (A) (A) (A) (A) (A) (A)
                 (A) (A) (A) (A) (A) (A) (A) (A) (A) (A) (A) (A)
                 (A) (A) (A) (A) (A) (A) (A) (A) (A) (A) (A) (A)
                 (A) (A) (A) (A) (A) (A) (A) (A) (A) (A) (A) (A)
                 (A) (A) (A) (A) (A) (A) (A) (A) (A) (A) (A) (A)
                 (A) (A) (A) (A) (A) (A) (A) (A) (A) (A) (A) (A)
                 (A) (A) (A) (A) (A) (A) (A) (A) (A) (A) (A) (A)
                 (A) (A) (A) (A) (A) (A) (A) (A) (A) (A) (A) (A)
                 (A) (A) (A) (A) (A) (A) (A) (A) (A) (A) (A) (A)
                 (A) (A) (A) (A) (A) (A) (A) (A) (A) (A) (A) (A)
                 (A) (A) (A) (A) (A) (A) (A) (A) (A) (A) (A) (A)
                 (A) (A) (A) (A) (A) (A) (A) (A) (A) (A) (A) (A)
                 (A) (A) (A) (A) (A) (A) (A) (A) (A) (A) (A) (A)
                 (A)
 The electronic state is 1-A.
 Alpha  occ. eigenvalues --  -19.26979 -19.18004 -14.62217 -14.41549 -10.39901
 Alpha  occ. eigenvalues --  -10.39717 -10.39582 -10.37711 -10.37685 -10.28966
 Alpha  occ. eigenvalues --  -10.28433 -10.25134 -10.25014 -10.24948 -10.23904
 Alpha  occ. eigenvalues --  -10.23894 -10.23750 -10.23628 -10.22349  -1.20790
 Alpha  occ. eigenvalues --   -1.18244  -1.10545  -1.05583  -0.96233  -0.93803
 Alpha  occ. eigenvalues --   -0.91229  -0.88174  -0.86080  -0.84533  -0.84339
 Alpha  occ. eigenvalues --   -0.80800  -0.79110  -0.73607  -0.72680  -0.71969
 Alpha  occ. eigenvalues --   -0.69779  -0.68004  -0.67141  -0.66106  -0.65105
 Alpha  occ. eigenvalues --   -0.63598  -0.63274  -0.61072  -0.59428  -0.58620
 Alpha  occ. eigenvalues --   -0.58510  -0.57417  -0.56773  -0.56479  -0.56029
 Alpha  occ. eigenvalues --   -0.55778  -0.53598  -0.51985  -0.51676  -0.51636
 Alpha  occ. eigenvalues --   -0.50436  -0.50061  -0.48858  -0.47508  -0.47422
 Alpha  occ. eigenvalues --   -0.46388  -0.45002  -0.43444  -0.42204  -0.41168
 Alpha  occ. eigenvalues --   -0.40935  -0.40254  -0.39693  -0.39362  -0.36124
 Alpha  occ. eigenvalues --   -0.34572  -0.28914
 Alpha virt. eigenvalues --   -0.16653  -0.12989  -0.12104  -0.11512  -0.11370
 Alpha virt. eigenvalues --   -0.10932  -0.09266  -0.09028  -0.08439  -0.07576
 Alpha virt. eigenvalues --   -0.07117  -0.06896  -0.06832  -0.06446  -0.05525
 Alpha virt. eigenvalues --   -0.04966  -0.04869  -0.04666  -0.04237  -0.03911
 Alpha virt. eigenvalues --   -0.03523  -0.03068  -0.03012  -0.02923  -0.02366
 Alpha virt. eigenvalues --   -0.02151  -0.01716  -0.01201  -0.01159  -0.00741
 Alpha virt. eigenvalues --   -0.00733  -0.00305  -0.00089   0.00212   0.00407
 Alpha virt. eigenvalues --    0.00764   0.00933   0.01185   0.01654   0.01792
 Alpha virt. eigenvalues --    0.01973   0.02185   0.02497   0.03284   0.03663
 Alpha virt. eigenvalues --    0.03949   0.04225   0.04441   0.04481   0.04798
 Alpha virt. eigenvalues --    0.04883   0.05264   0.05418   0.05539   0.05609
 Alpha virt. eigenvalues --    0.05900   0.06184   0.06411   0.06592   0.06768
 Alpha virt. eigenvalues --    0.07033   0.07063   0.07354   0.07577   0.07757
 Alpha virt. eigenvalues --    0.08087   0.08144   0.08318   0.08872   0.09189
 Alpha virt. eigenvalues --    0.09344   0.09544   0.09738   0.09813   0.10106
 Alpha virt. eigenvalues --    0.10411   0.10485   0.10748   0.10823   0.11255
 Alpha virt. eigenvalues --    0.11358   0.12075   0.12331   0.12570   0.12657
 Alpha virt. eigenvalues --    0.12749   0.13075   0.13432   0.14069   0.14373
 Alpha virt. eigenvalues --    0.14504   0.14670   0.14808   0.15578   0.15964
 Alpha virt. eigenvalues --    0.16349   0.16666   0.16745   0.16824   0.17651
 Alpha virt. eigenvalues --    0.18316   0.18484   0.18743   0.19248   0.19745
 Alpha virt. eigenvalues --    0.20042   0.20360   0.20591   0.20794   0.21572
 Alpha virt. eigenvalues --    0.21814   0.22007   0.22489   0.22737   0.23243
 Alpha virt. eigenvalues --    0.23433   0.24119   0.24602   0.24881   0.25041
 Alpha virt. eigenvalues --    0.25565   0.25611   0.26383   0.26667   0.26760
 Alpha virt. eigenvalues --    0.27254   0.27637   0.28144   0.28632   0.29119
 Alpha virt. eigenvalues --    0.29492   0.30382   0.30922   0.31833   0.32523
 Alpha virt. eigenvalues --    0.33063   0.33363   0.34016   0.34356   0.35930
 Alpha virt. eigenvalues --    0.35979   0.37053   0.38200   0.38356   0.38851
 Alpha virt. eigenvalues --    0.39732   0.39775   0.40456   0.40759   0.41201
 Alpha virt. eigenvalues --    0.41638   0.42739   0.43293   0.43497   0.43997
 Alpha virt. eigenvalues --    0.44780   0.45419   0.46940   0.47496   0.47818
 Alpha virt. eigenvalues --    0.48818   0.48907   0.49593   0.49912   0.50190
 Alpha virt. eigenvalues --    0.50656   0.51024   0.51411   0.52044   0.52895
 Alpha virt. eigenvalues --    0.53221   0.53672   0.54670   0.54836   0.55286
 Alpha virt. eigenvalues --    0.55994   0.56499   0.56968   0.57310   0.57893
 Alpha virt. eigenvalues --    0.58072   0.58144   0.58938   0.59028   0.59149
 Alpha virt. eigenvalues --    0.60229   0.60428   0.60982   0.61293   0.62106
 Alpha virt. eigenvalues --    0.62741   0.63713   0.64001   0.64103   0.64676
 Alpha virt. eigenvalues --    0.65013   0.65318   0.66189   0.66267   0.68025
 Alpha virt. eigenvalues --    0.68784   0.69201   0.69318   0.70209   0.70994
 Alpha virt. eigenvalues --    0.71260   0.72332   0.73461   0.74911   0.75953
 Alpha virt. eigenvalues --    0.76375   0.77825   0.78759   0.79710   0.81560
 Alpha virt. eigenvalues --    0.82069   0.82492   0.82679   0.83015   0.84126
 Alpha virt. eigenvalues --    0.84967   0.86221   0.86836   0.87791   0.88403
 Alpha virt. eigenvalues --    0.90832   0.91198   0.91757   0.91995   0.92554
 Alpha virt. eigenvalues --    0.93935   0.95119   0.95572   0.96035   0.97156
 Alpha virt. eigenvalues --    0.98381   1.00303   1.00845   1.00956   1.01996
 Alpha virt. eigenvalues --    1.02662   1.03425   1.04569   1.05101   1.07924
 Alpha virt. eigenvalues --    1.08134   1.09331   1.11239   1.11628   1.12155
 Alpha virt. eigenvalues --    1.15794   1.16492   1.17810   1.17831   1.19303
 Alpha virt. eigenvalues --    1.19984   1.21631   1.22358   1.23953   1.24626
 Alpha virt. eigenvalues --    1.27881   1.28163   1.28858   1.30429   1.30964
 Alpha virt. eigenvalues --    1.32040   1.34702   1.36689   1.37649   1.38057
 Alpha virt. eigenvalues --    1.38815   1.39056   1.39200   1.40443   1.41393
 Alpha virt. eigenvalues --    1.41779   1.42221   1.42976   1.43503   1.45291
 Alpha virt. eigenvalues --    1.46049   1.47807   1.48448   1.48497   1.48511
 Alpha virt. eigenvalues --    1.48891   1.48915   1.49846   1.50422   1.50841
 Alpha virt. eigenvalues --    1.51922   1.52325   1.52975   1.53116   1.53952
 Alpha virt. eigenvalues --    1.54854   1.55707   1.56055   1.56320   1.57168
 Alpha virt. eigenvalues --    1.57673   1.59058   1.59452   1.59994   1.61467
 Alpha virt. eigenvalues --    1.62199   1.62442   1.63297   1.63534   1.64003
 Alpha virt. eigenvalues --    1.65261   1.66184   1.66509   1.68346   1.69077
 Alpha virt. eigenvalues --    1.69472   1.69972   1.70519   1.71646   1.73249
 Alpha virt. eigenvalues --    1.76463   1.78375   1.78776   1.80276   1.80968
 Alpha virt. eigenvalues --    1.82371   1.83184   1.85028   1.85526   1.86226
 Alpha virt. eigenvalues --    1.87611   1.88533   1.88656   1.89844   1.91188
 Alpha virt. eigenvalues --    1.91301   1.91901   1.92615   1.93391   1.94216
 Alpha virt. eigenvalues --    1.96448   1.96783   1.96998   1.97326   1.98895
 Alpha virt. eigenvalues --    2.01066   2.01872   2.02951   2.04325   2.05207
 Alpha virt. eigenvalues --    2.06208   2.07976   2.08747   2.10763   2.11060
 Alpha virt. eigenvalues --    2.11555   2.12511   2.12947   2.15988   2.17382
 Alpha virt. eigenvalues --    2.19172   2.20880   2.21778   2.22381   2.23061
 Alpha virt. eigenvalues --    2.23923   2.24090   2.25032   2.26203   2.28305
 Alpha virt. eigenvalues --    2.29912   2.30213   2.31686   2.32158   2.34213
 Alpha virt. eigenvalues --    2.34793   2.35416   2.37591   2.38067   2.38508
 Alpha virt. eigenvalues --    2.39193   2.40770   2.40963   2.42504   2.43058
 Alpha virt. eigenvalues --    2.43187   2.44257   2.44870   2.45239   2.45560
 Alpha virt. eigenvalues --    2.48151   2.49310   2.49921   2.51905   2.53832
 Alpha virt. eigenvalues --    2.54613   2.57396   2.58009   2.58460   2.58924
 Alpha virt. eigenvalues --    2.59845   2.60101   2.61066   2.63008   2.63417
 Alpha virt. eigenvalues --    2.63572   2.64204   2.64932   2.65617   2.67007
 Alpha virt. eigenvalues --    2.67413   2.68159   2.69282   2.70463   2.71612
 Alpha virt. eigenvalues --    2.72832   2.73985   2.74180   2.75791   2.77178
 Alpha virt. eigenvalues --    2.77401   2.78068   2.78866   2.80340   2.84324
 Alpha virt. eigenvalues --    2.85136   2.85306   2.87503   2.88814   2.89031
 Alpha virt. eigenvalues --    2.90086   2.90553   2.91284   2.93184   2.94945
 Alpha virt. eigenvalues --    2.98306   2.98503   2.99230   2.99876   3.01551
 Alpha virt. eigenvalues --    3.06448   3.06877   3.11339   3.11968   3.19523
 Alpha virt. eigenvalues --    3.19801   3.27399   3.27794   3.29057   3.29703
 Alpha virt. eigenvalues --    3.30739   3.33685   3.35082   3.39725   3.42155
 Alpha virt. eigenvalues --    3.43923   3.47335   3.51180   3.53091   3.54533
 Alpha virt. eigenvalues --    3.55437   3.56394   3.58451   3.59504   3.62000
 Alpha virt. eigenvalues --    3.64688   3.67635   3.68322   3.68525   3.70887
 Alpha virt. eigenvalues --    3.71116   3.71961   3.74755   3.76353   3.89658
 Alpha virt. eigenvalues --    3.90343   3.92446   3.97658   3.98421   4.03115
 Alpha virt. eigenvalues --    4.06822   4.09477   4.13175   4.15877   4.22953
 Alpha virt. eigenvalues --    4.37421   4.40594   4.50681   4.53210   4.71961
 Alpha virt. eigenvalues --    4.86474   4.93815   4.99439   5.03330   5.20039
 Alpha virt. eigenvalues --    5.29181   5.64652   5.81349  23.55973  23.65032
 Alpha virt. eigenvalues --   23.69126  23.69789  23.71848  23.76111  23.78426
 Alpha virt. eigenvalues --   23.80069  23.86427  23.91671  23.98902  24.07698
 Alpha virt. eigenvalues --   24.21321  24.21946  24.33732  35.24947  35.67044
 Alpha virt. eigenvalues --   49.83732  49.98260
          Condensed to atoms (all electrons):
               1          2          3          4          5          6
     1  N    7.012465   0.043786  -0.093460   0.005762  -0.201635   0.006685
     2  C    0.043786   9.930519   1.014216  -3.978812  -0.831455  -0.435028
     3  C   -0.093460   1.014216   8.282369   0.440966  -0.634613   0.150451
     4  C    0.005762  -3.978812   0.440966  11.547904   0.546682  -0.479512
     5  C   -0.201635  -0.831455  -0.634613   0.546682   6.877594   0.798435
     6  C    0.006685  -0.435028   0.150451  -0.479512   0.798435   6.345313
     7  C    0.024937   0.995648  -1.551096  -1.414411  -1.156810  -0.000728
     8  C    0.011981  -0.297460  -0.823127  -0.608558  -0.050625   0.009438
     9  O   -0.000335   0.143029   0.032991  -0.031857  -0.025855  -0.041755
    10  O   -0.000020   0.018048   0.033849   0.076369   0.077150   0.124244
    11  C    0.001099  -0.085312  -0.089743  -0.053627   0.017331  -0.290745
    12  C    0.000001  -0.008112   0.069296   0.026367   0.012338   0.021650
    13  N    0.000000  -0.019033  -0.004976  -0.000204   0.001307  -0.003313
    14  C    0.000000   0.005879   0.002071   0.000269  -0.000027  -0.001727
    15  C   -0.000001  -0.004104  -0.001277   0.000038   0.000388   0.000803
    16  C    0.191148  -0.532170  -0.374249   0.236349   0.108805  -0.353217
    17  C   -0.236909  -0.049290  -0.231670   0.072436   0.022253   0.132049
    18  C   -0.003199  -0.001010   0.027592  -0.110185  -0.030404  -0.028701
    19  C   -0.018694  -0.002381  -0.007572  -0.008104   0.002983  -0.001950
    20  H    0.352818  -0.090199   0.004110   0.099195  -0.005527  -0.011504
    21  H   -0.004371   0.438306   0.001101   0.016431  -0.034153   0.002617
    22  H   -0.016730   0.116688   0.294221  -0.261444   0.037501   0.003679
    23  H   -0.059129   0.040093  -0.000458  -0.133380   0.425429  -0.039315
    24  H    0.001196  -0.019726   0.015730   0.072936  -0.026627   0.379563
    25  H   -0.000043  -0.006965  -0.006737  -0.001935   0.000224  -0.009973
    26  H   -0.000059   0.010039  -0.001392   0.000146   0.000709  -0.002683
    27  H   -0.000003  -0.026001  -0.011686  -0.000554   0.002190   0.000819
    28  H   -0.000002   0.002525  -0.006303  -0.002304  -0.000046  -0.006070
    29  H    0.000001  -0.000755   0.000590   0.000143   0.000132  -0.000313
    30  H    0.000000   0.000445   0.000158   0.000038   0.000020   0.000133
    31  H    0.000001  -0.000328  -0.000586  -0.000359  -0.000249  -0.001633
    32  H   -0.000001  -0.000907  -0.000192   0.000016   0.000056   0.000537
    33  H    0.000000  -0.000242  -0.000069  -0.000003   0.000012  -0.000013
    34  H    0.000000   0.000293   0.000238   0.000060   0.000000   0.000094
    35  H    0.000000   0.000016  -0.000002  -0.000015   0.000005   0.000101
    36  H   -0.028966  -0.007197   0.001634  -0.005261   0.004384   0.000750
    37  H   -0.029884  -0.010749  -0.002124   0.003054  -0.003664   0.001730
    38  H    0.015675   0.004348   0.003544  -0.010865   0.008145  -0.000364
    39  H    0.017214   0.003184   0.004514  -0.012036   0.005330  -0.000078
    40  H   -0.002756   0.000055  -0.001744   0.005344  -0.000592  -0.000250
    41  H   -0.002475  -0.000028  -0.001551   0.006518  -0.001279  -0.000036
    42  H    0.000183  -0.000014  -0.000048  -0.000702  -0.000051  -0.000049
    43  H   -0.000124  -0.000114  -0.000545   0.000067  -0.000347   0.000045
    44  H   -0.000138  -0.000132  -0.000552   0.000248  -0.000344   0.000040
               7          8          9         10         11         12
     1  N    0.024937   0.011981  -0.000335  -0.000020   0.001099   0.000001
     2  C    0.995648  -0.297460   0.143029   0.018048  -0.085312  -0.008112
     3  C   -1.551096  -0.823127   0.032991   0.033849  -0.089743   0.069296
     4  C   -1.414411  -0.608558  -0.031857   0.076369  -0.053627   0.026367
     5  C   -1.156810  -0.050625  -0.025855   0.077150   0.017331   0.012338
     6  C   -0.000728   0.009438  -0.041755   0.124244  -0.290745   0.021650
     7  C    8.818399   0.755152  -0.107850  -0.313601   0.101756   0.001886
     8  C    0.755152   7.765285  -0.188055   0.229180  -0.791345   0.046260
     9  O   -0.107850  -0.188055   8.646789  -0.253354   0.243025  -0.290180
    10  O   -0.313601   0.229180  -0.253354   8.183723   0.030980   0.101630
    11  C    0.101756  -0.791345   0.243025   0.030980   7.167143  -0.916346
    12  C    0.001886   0.046260  -0.290180   0.101630  -0.916346   7.302895
    13  N    0.021686  -0.109139   0.017757   0.000651  -0.015057  -0.089074
    14  C   -0.001158  -0.041288  -0.005651   0.000969   0.004189  -0.099663
    15  C    0.005010  -0.009053   0.004619   0.000134   0.023396  -0.227572
    16  C   -0.381613   0.031256  -0.002534   0.001911   0.003570   0.000592
    17  C   -0.011382   0.006063  -0.000260   0.000158   0.000710   0.000118
    18  C   -0.000723   0.000694  -0.000009   0.000010  -0.000033  -0.000002
    19  C    0.000893  -0.000053  -0.000001   0.000001  -0.000001   0.000000
    20  H   -0.035836  -0.015312  -0.000280   0.000286  -0.000805   0.000207
    21  H   -0.028813  -0.020212  -0.002169  -0.000559  -0.023527   0.010826
    22  H    0.068163   0.024068   0.001888  -0.001642   0.007704  -0.002019
    23  H    0.015453   0.035197   0.004387   0.001319  -0.002157  -0.001360
    24  H   -0.077692  -0.051492  -0.013771  -0.003973   0.007201   0.007194
    25  H    0.008155  -0.051483  -0.021109  -0.021456   0.444072  -0.143416
    26  H    0.003007  -0.037405   0.003496  -0.023674   0.365594  -0.024306
    27  H    0.025707  -0.023052  -0.004023   0.002302  -0.016949   0.303940
    28  H    0.003646  -0.015882   0.007222  -0.002527  -0.038063   0.383271
    29  H    0.000574  -0.006703  -0.005948   0.002718  -0.018878  -0.022868
    30  H    0.000209   0.001720   0.001259   0.000057   0.003156   0.035551
    31  H    0.000353   0.002409  -0.000613  -0.001174   0.049084  -0.030584
    32  H   -0.000626  -0.002931  -0.001115   0.000583  -0.022812  -0.008083
    33  H    0.000266   0.000299   0.000521   0.000012   0.002265   0.025892
    34  H   -0.000191   0.000695   0.000281   0.000020  -0.006257   0.011052
    35  H    0.000119  -0.000751   0.000564  -0.000081   0.004472  -0.036196
    36  H    0.001360  -0.000044  -0.000113  -0.000048   0.000245   0.000035
    37  H   -0.000512   0.000175  -0.000111  -0.000025   0.000189   0.000038
    38  H    0.000888   0.000478   0.000010  -0.000006   0.000012  -0.000003
    39  H    0.000643   0.000333   0.000010  -0.000006   0.000003  -0.000005
    40  H   -0.000350  -0.000009   0.000000   0.000000  -0.000001   0.000000
    41  H   -0.000198  -0.000057   0.000001   0.000000  -0.000003   0.000000
    42  H    0.000041   0.000002   0.000000   0.000000   0.000000   0.000000
    43  H   -0.000057  -0.000001   0.000000   0.000000   0.000000   0.000000
    44  H   -0.000055  -0.000004   0.000000   0.000000   0.000000   0.000000
              13         14         15         16         17         18
     1  N    0.000000   0.000000  -0.000001   0.191148  -0.236909  -0.003199
     2  C   -0.019033   0.005879  -0.004104  -0.532170  -0.049290  -0.001010
     3  C   -0.004976   0.002071  -0.001277  -0.374249  -0.231670   0.027592
     4  C   -0.000204   0.000269   0.000038   0.236349   0.072436  -0.110185
     5  C    0.001307  -0.000027   0.000388   0.108805   0.022253  -0.030404
     6  C   -0.003313  -0.001727   0.000803  -0.353217   0.132049  -0.028701
     7  C    0.021686  -0.001158   0.005010  -0.381613  -0.011382  -0.000723
     8  C   -0.109139  -0.041288  -0.009053   0.031256   0.006063   0.000694
     9  O    0.017757  -0.005651   0.004619  -0.002534  -0.000260  -0.000009
    10  O    0.000651   0.000969   0.000134   0.001911   0.000158   0.000010
    11  C   -0.015057   0.004189   0.023396   0.003570   0.000710  -0.000033
    12  C   -0.089074  -0.099663  -0.227572   0.000592   0.000118  -0.000002
    13  N    6.551059   0.180335   0.251838   0.000012   0.000000   0.000000
    14  C    0.180335   5.357512  -0.134078   0.000002   0.000000   0.000000
    15  C    0.251838  -0.134078   5.273117   0.000004   0.000000   0.000000
    16  C    0.000012   0.000002   0.000004   7.511498  -0.996340   0.247370
    17  C    0.000000   0.000000   0.000000  -0.996340   7.178452  -0.471652
    18  C    0.000000   0.000000   0.000000   0.247370  -0.471652   6.150604
    19  C    0.000000   0.000000   0.000000  -0.034116   0.012418   0.049096
    20  H   -0.000013   0.000001  -0.000003  -0.004235   0.009669  -0.057262
    21  H   -0.005346  -0.000001  -0.001234  -0.015631  -0.001284  -0.000968
    22  H    0.000282   0.000001   0.000054   0.031571  -0.011269   0.006554
    23  H    0.000025  -0.000023   0.000012   0.059763  -0.013545   0.003589
    24  H   -0.000151   0.000243  -0.000081   0.009655   0.003402  -0.000446
    25  H    0.049927  -0.023124   0.026073   0.000011  -0.000033   0.000001
    26  H   -0.031923   0.001398  -0.006239  -0.000099  -0.000060   0.000001
    27  H    0.063672  -0.029586   0.031788   0.000095   0.000010   0.000000
    28  H   -0.027698   0.033630  -0.032115   0.000013   0.000010   0.000000
    29  H    0.402829  -0.040316  -0.027176   0.000005   0.000001   0.000000
    30  H   -0.049492   0.380366  -0.014399   0.000000   0.000000   0.000000
    31  H   -0.039594   0.395676   0.004369  -0.000004   0.000000   0.000000
    32  H    0.020340   0.374445  -0.000646   0.000000   0.000000   0.000000
    33  H   -0.030687  -0.022491   0.387477   0.000000   0.000000   0.000000
    34  H   -0.035243   0.015718   0.377997   0.000000   0.000000   0.000000
    35  H    0.006901  -0.002607   0.394034   0.000000   0.000000   0.000000
    36  H    0.000000   0.000001   0.000000   0.398078  -0.038306  -0.033672
    37  H    0.000000   0.000000   0.000000   0.394015  -0.025759  -0.034253
    38  H    0.000000   0.000000   0.000000  -0.057873   0.433026  -0.059409
    39  H    0.000000   0.000000   0.000000  -0.064920   0.443456  -0.062224
    40  H    0.000000   0.000000   0.000000  -0.007803  -0.020711   0.395774
    41  H    0.000000   0.000000   0.000000  -0.007091  -0.022292   0.395923
    42  H    0.000000   0.000000   0.000000  -0.008397   0.042849  -0.065947
    43  H    0.000000   0.000000   0.000000  -0.012063  -0.022441  -0.021054
    44  H    0.000000   0.000000   0.000000  -0.010746  -0.024385  -0.019657
              19         20         21         22         23         24
     1  N   -0.018694   0.352818  -0.004371  -0.016730  -0.059129   0.001196
     2  C   -0.002381  -0.090199   0.438306   0.116688   0.040093  -0.019726
     3  C   -0.007572   0.004110   0.001101   0.294221  -0.000458   0.015730
     4  C   -0.008104   0.099195   0.016431  -0.261444  -0.133380   0.072936
     5  C    0.002983  -0.005527  -0.034153   0.037501   0.425429  -0.026627
     6  C   -0.001950  -0.011504   0.002617   0.003679  -0.039315   0.379563
     7  C    0.000893  -0.035836  -0.028813   0.068163   0.015453  -0.077692
     8  C   -0.000053  -0.015312  -0.020212   0.024068   0.035197  -0.051492
     9  O   -0.000001  -0.000280  -0.002169   0.001888   0.004387  -0.013771
    10  O    0.000001   0.000286  -0.000559  -0.001642   0.001319  -0.003973
    11  C   -0.000001  -0.000805  -0.023527   0.007704  -0.002157   0.007201
    12  C    0.000000   0.000207   0.010826  -0.002019  -0.001360   0.007194
    13  N    0.000000  -0.000013  -0.005346   0.000282   0.000025  -0.000151
    14  C    0.000000   0.000001  -0.000001   0.000001  -0.000023   0.000243
    15  C    0.000000  -0.000003  -0.001234   0.000054   0.000012  -0.000081
    16  C   -0.034116  -0.004235  -0.015631   0.031571   0.059763   0.009655
    17  C    0.012418   0.009669  -0.001284  -0.011269  -0.013545   0.003402
    18  C    0.049096  -0.057262  -0.000968   0.006554   0.003589  -0.000446
    19  C    5.501954  -0.003553  -0.000068  -0.000232  -0.000161  -0.000007
    20  H   -0.003553   0.440078   0.004090   0.001607  -0.003797   0.001655
    21  H   -0.000068   0.004090   0.554153  -0.028584   0.000680  -0.001080
    22  H   -0.000232   0.001607  -0.028584   0.597506   0.003213   0.000042
    23  H   -0.000161  -0.003797   0.000680   0.003213   0.580535  -0.030342
    24  H   -0.000007   0.001655  -0.001080   0.000042  -0.030342   0.503929
    25  H    0.000000  -0.000026  -0.002939   0.000389   0.000549  -0.002023
    26  H    0.000000  -0.000014   0.001528   0.000118   0.000566  -0.002377
    27  H    0.000000  -0.000052  -0.007420   0.000583  -0.000011   0.000107
    28  H    0.000000  -0.000069  -0.000856   0.000390   0.000031  -0.000113
    29  H    0.000000   0.000000  -0.000357   0.000000  -0.000026   0.000197
    30  H    0.000000   0.000000   0.000096  -0.000003  -0.000001   0.000005
    31  H    0.000000  -0.000003  -0.000059   0.000012   0.000004  -0.000007
    32  H    0.000000   0.000001  -0.000078  -0.000003   0.000001  -0.000008
    33  H    0.000000   0.000000   0.000010   0.000000   0.000000  -0.000004
    34  H    0.000000   0.000001   0.000118  -0.000012  -0.000001   0.000004
    35  H    0.000000   0.000000  -0.000108   0.000006   0.000001  -0.000009
    36  H   -0.006871   0.007940  -0.000161  -0.000967  -0.016905   0.001335
    37  H   -0.005636   0.008940  -0.000156  -0.001363  -0.018034   0.001319
    38  H    0.001432   0.000414  -0.000155   0.000909   0.000923  -0.000163
    39  H    0.003042   0.001154  -0.000070   0.000621   0.000628  -0.000146
    40  H   -0.046842   0.002430   0.000016  -0.000157   0.000598  -0.000035
    41  H   -0.047198   0.002485   0.000028  -0.000190   0.000413  -0.000024
    42  H    0.397179   0.000017  -0.000003   0.000001  -0.000103  -0.000002
    43  H    0.402210   0.000394   0.000002  -0.000037  -0.000043   0.000005
    44  H    0.401329   0.000375   0.000002  -0.000040  -0.000049   0.000005
              25         26         27         28         29         30
     1  N   -0.000043  -0.000059  -0.000003  -0.000002   0.000001   0.000000
     2  C   -0.006965   0.010039  -0.026001   0.002525  -0.000755   0.000445
     3  C   -0.006737  -0.001392  -0.011686  -0.006303   0.000590   0.000158
     4  C   -0.001935   0.000146  -0.000554  -0.002304   0.000143   0.000038
     5  C    0.000224   0.000709   0.002190  -0.000046   0.000132   0.000020
     6  C   -0.009973  -0.002683   0.000819  -0.006070  -0.000313   0.000133
     7  C    0.008155   0.003007   0.025707   0.003646   0.000574   0.000209
     8  C   -0.051483  -0.037405  -0.023052  -0.015882  -0.006703   0.001720
     9  O   -0.021109   0.003496  -0.004023   0.007222  -0.005948   0.001259
    10  O   -0.021456  -0.023674   0.002302  -0.002527   0.002718   0.000057
    11  C    0.444072   0.365594  -0.016949  -0.038063  -0.018878   0.003156
    12  C   -0.143416  -0.024306   0.303940   0.383271  -0.022868   0.035551
    13  N    0.049927  -0.031923   0.063672  -0.027698   0.402829  -0.049492
    14  C   -0.023124   0.001398  -0.029586   0.033630  -0.040316   0.380366
    15  C    0.026073  -0.006239   0.031788  -0.032115  -0.027176  -0.014399
    16  C    0.000011  -0.000099   0.000095   0.000013   0.000005   0.000000
    17  C   -0.000033  -0.000060   0.000010   0.000010   0.000001   0.000000
    18  C    0.000001   0.000001   0.000000   0.000000   0.000000   0.000000
    19  C    0.000000   0.000000   0.000000   0.000000   0.000000   0.000000
    20  H   -0.000026  -0.000014  -0.000052  -0.000069   0.000000   0.000000
    21  H   -0.002939   0.001528  -0.007420  -0.000856  -0.000357   0.000096
    22  H    0.000389   0.000118   0.000583   0.000390   0.000000  -0.000003
    23  H    0.000549   0.000566  -0.000011   0.000031  -0.000026  -0.000001
    24  H   -0.002023  -0.002377   0.000107  -0.000113   0.000197   0.000005
    25  H    0.634705  -0.061178   0.018290  -0.031504  -0.000666  -0.000756
    26  H   -0.061178   0.595706  -0.030545   0.016441  -0.003811   0.005620
    27  H    0.018290  -0.030545   0.502149  -0.048821   0.008146  -0.005125
    28  H   -0.031504   0.016441  -0.048821   0.543836  -0.011281  -0.001071
    29  H   -0.000666  -0.003811   0.008146  -0.011281   0.388632  -0.007902
    30  H   -0.000756   0.005620  -0.005125  -0.001071  -0.007902   0.506889
    31  H   -0.013492   0.003773   0.002686   0.005144  -0.003694  -0.030806
    32  H    0.006534  -0.010594   0.005471  -0.007148   0.004798  -0.030890
    33  H    0.000372  -0.000181  -0.001674   0.000287  -0.010605   0.002890
    34  H   -0.000775  -0.000509   0.000453   0.002962  -0.007690   0.000800
    35  H    0.001378   0.001502  -0.001820   0.002475   0.003880   0.004502
    36  H   -0.000009  -0.000032  -0.000002   0.000002   0.000000   0.000000
    37  H   -0.000023  -0.000005   0.000004  -0.000005   0.000001   0.000000
    38  H    0.000003   0.000001   0.000000   0.000000   0.000000   0.000000
    39  H    0.000000   0.000003  -0.000001   0.000001   0.000000   0.000000
    40  H    0.000000   0.000000   0.000000   0.000000   0.000000   0.000000
    41  H    0.000000   0.000000   0.000000   0.000000   0.000000   0.000000
    42  H    0.000000   0.000000   0.000000   0.000000   0.000000   0.000000
    43  H    0.000000   0.000000   0.000000   0.000000   0.000000   0.000000
    44  H    0.000000   0.000000   0.000000   0.000000   0.000000   0.000000
              31         32         33         34         35         36
     1  N    0.000001  -0.000001   0.000000   0.000000   0.000000  -0.028966
     2  C   -0.000328  -0.000907  -0.000242   0.000293   0.000016  -0.007197
     3  C   -0.000586  -0.000192  -0.000069   0.000238  -0.000002   0.001634
     4  C   -0.000359   0.000016  -0.000003   0.000060  -0.000015  -0.005261
     5  C   -0.000249   0.000056   0.000012   0.000000   0.000005   0.004384
     6  C   -0.001633   0.000537  -0.000013   0.000094   0.000101   0.000750
[...]
       Atomic Center   38 is at  -6.130497 -1.352896 -0.790641
       Atomic Center   39 is at  -6.125101 -1.251360  0.968971
       Atomic Center   40 is at  -7.377343  0.917405  0.845043
       Atomic Center   41 is at  -7.381220  0.819557 -0.906432
       Atomic Center   42 is at  -9.559163  0.023094  0.020945
       Atomic Center   43 is at  -8.733630 -1.309476 -0.790362
       Atomic Center   44 is at  -8.730229 -1.209706  0.974073
 -----------------------------------------------------------------

              Electrostatic Properties (Atomic Units)

 -----------------------------------------------------------------
    Center     Electric         -------- Electric Field --------
               Potential          X             Y             Z
 -----------------------------------------------------------------
    1 Atom    -18.291548     -0.004615      0.000461     -0.000294
    2 Atom    -14.684717      0.000301     -0.000093      0.000022
    3 Atom    -14.694888      0.000522     -0.000786      0.000065
    4 Atom    -14.640308      0.008032      0.002835     -0.000204
    5 Atom    -14.698892     -0.000157      0.001601     -0.000112
    6 Atom    -14.689514      0.000193      0.001348     -0.000105
    7 Atom    -14.686701     -0.003024     -0.000585      0.000069
    8 Atom    -14.558811     -0.014066     -0.002835      0.000364
    9 Atom    -22.222830     -0.013808     -0.039613      0.002293
   10 Atom    -22.298048      0.012799      0.050214     -0.003731
   11 Atom    -14.571275      0.008640      0.006108      0.000131
   12 Atom    -14.557079     -0.011389      0.000106      0.001752
   13 Atom    -18.095703     -0.001354     -0.002026      0.004564
   14 Atom    -14.555037      0.004234      0.006335      0.006465
   15 Atom    -14.553657      0.005185     -0.008405     -0.000589
   16 Atom    -14.662766     -0.009005      0.003498     -0.000193
   17 Atom    -14.703048     -0.002452      0.002197     -0.000151
   18 Atom    -14.712488     -0.001041     -0.002096      0.000112
   19 Atom    -14.729801      0.001792      0.001303     -0.000077
   20 Atom     -0.947543     -0.003671     -0.022557      0.001770
   21 Atom     -1.022423      0.013959     -0.013309      0.000957
   22 Atom     -1.022786     -0.003950     -0.018510      0.001390
   23 Atom     -1.029764     -0.013882      0.013527     -0.000924
   24 Atom     -1.031359      0.004353      0.018933     -0.001406
   25 Atom     -0.968591      0.002458      0.009244     -0.015272
   26 Atom     -0.973294      0.002078      0.011979      0.014265
   27 Atom     -0.930501     -0.001412     -0.007948      0.017214
   28 Atom     -0.931752     -0.006339     -0.012822     -0.012526
   29 Atom     -0.801888      0.000969      0.008790     -0.019009
   30 Atom     -0.919035      0.018287      0.002385     -0.004066
   31 Atom     -0.919835     -0.008608      0.017047     -0.000966
   32 Atom     -0.918621     -0.001515     -0.006679      0.017657
   33 Atom     -0.917808      0.017964      0.003429     -0.004896
   34 Atom     -0.918175     -0.007559     -0.011614     -0.012881
   35 Atom     -0.917880     -0.000207     -0.008608      0.016922
   36 Atom     -1.046480      0.000219      0.011634      0.013997
   37 Atom     -1.046198      0.000174      0.009745     -0.015329
   38 Atom     -1.055661     -0.000383     -0.011497     -0.013781
   39 Atom     -1.055460     -0.000309     -0.009783      0.014983
   40 Atom     -1.069541     -0.000019      0.011565      0.013671
   41 Atom     -1.069504     -0.000101      0.009927     -0.014855
   42 Atom     -1.073204     -0.014712      0.010529     -0.000565
   43 Atom     -1.072998     -0.001203     -0.011314     -0.013871
   44 Atom     -1.072988     -0.001138     -0.009676      0.015053
 -----------------------------------------------------------------
 -----------------------------------------------------
    Center         ---- Electric Field Gradient ----
                     XX            YY            ZZ
 -----------------------------------------------------
    1 Atom     -812.219830   -812.160022   -810.637881
    2 Atom     -500.768467   -500.822564   -501.334775
    3 Atom     -500.612327   -500.687393   -500.909554
    4 Atom     -500.861470   -500.605791   -501.244203
    5 Atom     -500.572598   -500.663233   -500.897630
    6 Atom     -500.828156   -500.847465   -501.438826
    7 Atom     -500.592645   -500.448619   -500.641323
    8 Atom     -501.154201   -501.217778   -501.667822
    9 Atom    -1238.972952  -1236.815731  -1235.692585
   10 Atom    -1236.576185  -1238.348029  -1238.582624
   11 Atom     -500.704580   -500.293306   -500.094925
   12 Atom     -501.075603   -500.460815   -500.412659
   13 Atom     -812.609632   -812.644326   -812.581162
   14 Atom     -500.375397   -500.521554   -500.549143
   15 Atom     -500.454341   -500.776211   -500.266623
   16 Atom     -500.463968   -500.316472   -500.133892
   17 Atom     -500.365775   -500.357111   -500.276970
   18 Atom     -500.300576   -500.261199   -500.188100
   19 Atom     -500.299444   -500.272984   -500.242369
   20 Atom       -1.663899     -2.198061     -1.564272
   21 Atom       -1.939070     -1.917146     -1.677385
   22 Atom       -1.718175     -2.127412     -1.663285
   23 Atom       -1.938748     -1.915419     -1.664450
   24 Atom       -1.701495     -2.116206     -1.667726
   25 Atom       -1.728659     -1.787902     -2.003291
   26 Atom       -1.734250     -1.866689     -1.955888
   27 Atom       -1.701162     -1.753083     -2.048839
   28 Atom       -1.737545     -1.877986     -1.890245
   29 Atom       -1.618668     -1.707946     -2.040096
   30 Atom       -2.087513     -1.678221     -1.704264
   31 Atom       -1.773304     -2.019084     -1.676807
   32 Atom       -1.668945     -1.741713     -2.048564
   33 Atom       -2.067844     -1.709437     -1.691855
   34 Atom       -1.757249     -1.833507     -1.875717
   35 Atom       -1.668403     -1.758642     -2.035728
   36 Atom       -1.720231     -1.886649     -1.963499
   37 Atom       -1.720386     -1.835082     -2.015520
   38 Atom       -1.708205     -1.878564     -1.960567
   39 Atom       -1.708368     -1.829716     -2.008949
   40 Atom       -1.711147     -1.885127     -1.965347
   41 Atom       -1.711012     -1.837328     -2.012816
   42 Atom       -1.983789     -1.846694     -1.682236
   43 Atom       -1.692301     -1.866499     -1.959360
   44 Atom       -1.692144     -1.817763     -2.008104
 -----------------------------------------------------
 -----------------------------------------------------
    Center         ---- Electric Field Gradient ----
                     XY            XZ            YZ
 -----------------------------------------------------
    1 Atom        0.011063      0.009837      0.113513
    2 Atom        0.015388     -0.002722     -0.038512
    3 Atom        0.034852     -0.003603     -0.016679
    4 Atom       -0.084409      0.004246     -0.047258
    5 Atom       -0.001065     -0.001236     -0.017319
    6 Atom        0.022603     -0.003855     -0.044193
    7 Atom       -0.061572      0.004739     -0.014217
    8 Atom        0.296579     -0.023201     -0.034601
    9 Atom        0.247741     -0.034579      0.073523
   10 Atom       -0.635819      0.035976     -0.012015
   11 Atom       -0.065881      0.000947      0.035185
   12 Atom       -0.144175      0.140477      0.038526
   13 Atom        0.007443     -0.014632     -0.034986
   14 Atom       -0.195581     -0.193931     -0.286294
   15 Atom        0.312161      0.017553     -0.023980
   16 Atom        0.220800     -0.013585      0.011051
   17 Atom       -0.048266      0.003083      0.005480
   18 Atom        0.028838     -0.001281      0.004134
   19 Atom       -0.051431      0.002996      0.001855
   20 Atom       -0.089970      0.007607      0.049665
   21 Atom        0.234510     -0.016859      0.017440
   22 Atom       -0.099727      0.007644      0.035138
   23 Atom        0.231426     -0.016092      0.017761
   24 Atom       -0.097526      0.007392      0.033853
   25 Atom       -0.042037      0.072911      0.177175
   26 Atom       -0.051439     -0.057583     -0.209629
   27 Atom       -0.006961      0.014240      0.167055
   28 Atom       -0.085883     -0.082183     -0.203432
   29 Atom       -0.009287      0.020240      0.194778
   30 Atom       -0.044935      0.104484     -0.002559
   31 Atom        0.183113     -0.026314      0.021533
   32 Atom       -0.026767      0.035684      0.151511
   33 Atom       -0.087953      0.109633      0.025770
   34 Atom       -0.101944     -0.136235     -0.181488
   35 Atom        0.005422      0.017458      0.169148
   36 Atom       -0.001043     -0.008049     -0.214552
   37 Atom        0.000107      0.007898      0.198655
   38 Atom       -0.001393     -0.001692     -0.217513
   39 Atom        0.000124     -0.000025      0.202313
   40 Atom       -0.003216     -0.005278     -0.219556
   41 Atom       -0.001726      0.004322      0.205163
   42 Atom        0.215524     -0.011592      0.008902
   43 Atom       -0.016056     -0.014693     -0.222576
   44 Atom       -0.013527      0.015233      0.206549
 -----------------------------------------------------
 -----------------------------------------------------
    Center         ---- Electric Field Gradient ----
                   ----       Eigenvalues       ----
 -----------------------------------------------------
    1 Atom     -812.221888   -812.166454   -810.629391
    2 Atom     -501.337658   -500.824034   -500.764113
    3 Atom     -500.910802   -500.700119   -500.598352
    4 Atom     -501.247693   -500.886574   -500.577198
    5 Atom     -500.898908   -500.661970   -500.572582
    6 Atom     -501.442118   -500.860358   -500.811971
    7 Atom     -500.642367   -500.615370   -500.424849
    8 Atom     -501.670468   -501.483707   -500.885626
    9 Atom    -1239.001588  -1236.791993  -1235.687688
   10 Atom    -1238.583280  -1238.552570  -1236.370987
   11 Atom     -500.714941   -500.289177   -500.088693
   12 Atom     -501.136963   -500.429711   -500.382402
   13 Atom     -812.659892   -812.615052   -812.560177
   14 Atom     -500.953185   -500.253844   -500.239066
   15 Atom     -500.967732   -500.267310   -500.262133
   16 Atom     -500.623634   -500.157473   -500.133224
   17 Atom     -500.410171   -500.313089   -500.276597
   18 Atom     -500.315879   -500.246131   -500.187866
   19 Atom     -500.339445   -500.242257   -500.233094
   20 Atom       -2.216677     -1.649155     -1.560400
   21 Atom       -2.164081     -1.693398     -1.676123
   22 Atom       -2.153060     -1.695172     -1.660639
   23 Atom       -2.159956     -1.695463     -1.663199
   24 Atom       -2.140535     -1.679707     -1.665185
   25 Atom       -2.120986     -1.710641     -1.688224
   26 Atom       -2.140260     -1.720184     -1.696384
   27 Atom       -2.124657     -1.700580     -1.677847
   28 Atom       -2.124143     -1.701879     -1.679754
   29 Atom       -2.130956     -1.618060     -1.617693
   30 Atom       -2.118335     -1.689465     -1.662198
   31 Atom       -2.118950     -1.688189     -1.662055
   32 Atom       -2.114948     -1.685510     -1.658764
   33 Atom       -2.118025     -1.689020     -1.662090
   34 Atom       -2.117266     -1.687981     -1.661227
   35 Atom       -2.116233     -1.686713     -1.659827
   36 Atom       -2.143151     -1.721449     -1.705780
   37 Atom       -2.143585     -1.721601     -1.705802
   38 Atom       -2.140920     -1.708194     -1.698222
   39 Atom       -2.140605     -1.708369     -1.698059
   40 Atom       -2.148513     -1.711152     -1.701956
   41 Atom       -2.148259     -1.711061     -1.701836
   42 Atom       -2.141868     -1.689096     -1.681756
   43 Atom       -2.141329     -1.692693     -1.684138
   44 Atom       -2.141255     -1.692654     -1.684102
 -----------------------------------------------------
 -----------------------------------------------------
    Center         ---- Electric Field Gradient ----
                       ( tensor representation )
                   3XX-RR        3YY-RR        3ZZ-RR
 -----------------------------------------------------
    1 Atom       -0.547252     -0.487445      1.034697
    2 Atom        0.206801      0.152705     -0.359506
    3 Atom        0.124098      0.049031     -0.173129
    4 Atom        0.042351      0.298030     -0.340382
    5 Atom        0.138556      0.047921     -0.186477
    6 Atom        0.209993      0.190684     -0.400677
    7 Atom       -0.031783      0.112243     -0.080460
    8 Atom        0.192399      0.128822     -0.321221
    9 Atom       -1.812529      0.344692      1.467838
   10 Atom        1.259428     -0.512416     -0.747012
   11 Atom       -0.340310      0.070964      0.269346
   12 Atom       -0.425911      0.188878      0.237033
   13 Atom        0.002075     -0.032620      0.030545
   14 Atom        0.106634     -0.039522     -0.067112
   15 Atom        0.044717     -0.277153      0.232436
   16 Atom       -0.159191     -0.011695      0.170885
   17 Atom       -0.032490     -0.023826      0.056315
   18 Atom       -0.050618     -0.011241      0.061858
   19 Atom       -0.027845     -0.001385      0.029230
   20 Atom        0.144845     -0.389317      0.244472
   21 Atom       -0.094536     -0.072613      0.167149
   22 Atom        0.118116     -0.291121      0.173006
   23 Atom       -0.099209     -0.075880      0.175089
   24 Atom        0.126981     -0.287731      0.160750
   25 Atom        0.111292      0.052048     -0.163340
   26 Atom        0.118026     -0.014413     -0.103612
   27 Atom        0.133200      0.081278     -0.214478
   28 Atom        0.097713     -0.042727     -0.054986
   29 Atom        0.170235      0.080958     -0.251193
   30 Atom       -0.264180      0.145111      0.119069
   31 Atom        0.049761     -0.196019      0.146258
   32 Atom        0.150796      0.078027     -0.228823
   33 Atom       -0.244798      0.113608      0.131190
   34 Atom        0.064909     -0.011350     -0.053559
   35 Atom        0.152521      0.062282     -0.214803
   36 Atom        0.136562     -0.029856     -0.106706
   37 Atom        0.136610      0.021914     -0.158524
   38 Atom        0.140907     -0.029452     -0.111455
   39 Atom        0.140643      0.019295     -0.159938
   40 Atom        0.142727     -0.031253     -0.111474
   41 Atom        0.142706      0.016391     -0.159098
   42 Atom       -0.146216     -0.009121      0.155337
   43 Atom        0.147086     -0.027112     -0.119974
   44 Atom        0.147193      0.021574     -0.168767
 -----------------------------------------------------
 -----------------------------------------------------
    Center         ---- Electric Field Gradient ----
                       ( tensor representation )
                   ----       Eigenvalues       ----
 -----------------------------------------------------
    1 Atom       -0.549310     -0.493876      1.043187
    2 Atom       -0.362390      0.151234      0.211156
    3 Atom       -0.174378      0.036305      0.138072
    4 Atom       -0.343871      0.017248      0.326624
    5 Atom       -0.187755      0.049183      0.138572
    6 Atom       -0.403969      0.177791      0.226178
    7 Atom       -0.081505     -0.054508      0.136013
    8 Atom       -0.323867     -0.137107      0.460974
    9 Atom       -1.841165      0.368430      1.472735
   10 Atom       -0.747668     -0.716957      1.464625
   11 Atom       -0.350671      0.075094      0.275577
   12 Atom       -0.487271      0.219981      0.267290
   13 Atom       -0.048185     -0.003345      0.051530
   14 Atom       -0.471154      0.228188      0.242966
   15 Atom       -0.468674      0.231749      0.236925
   16 Atom       -0.318857      0.147304      0.171553
   17 Atom       -0.076886      0.020197      0.056689
   18 Atom       -0.065920      0.003828      0.062093
   19 Atom       -0.067846      0.029341      0.038505
   20 Atom       -0.407933      0.159589      0.248344
   21 Atom       -0.319547      0.151136      0.168411
   22 Atom       -0.316770      0.141119      0.175651
   23 Atom       -0.320417      0.144076      0.176340
   24 Atom       -0.312060      0.148769      0.163291
   25 Atom       -0.281036      0.129309      0.151726
   26 Atom       -0.287984      0.132092      0.155892
   27 Atom       -0.290296      0.133781      0.156515
   28 Atom       -0.288884      0.133380      0.155504
   29 Atom       -0.342053      0.170843      0.171210
   30 Atom       -0.295002      0.133867      0.161135
   31 Atom       -0.295885      0.134876      0.161009
   32 Atom       -0.295207      0.134231      0.160976
   33 Atom       -0.294980      0.134025      0.160955
   34 Atom       -0.295108      0.134177      0.160931
   35 Atom       -0.295309      0.134212      0.161097
   36 Atom       -0.286357      0.135344      0.151013
   37 Atom       -0.286589      0.135395      0.151194
   38 Atom       -0.291808      0.140918      0.150890
   39 Atom       -0.291594      0.140642      0.150952
   40 Atom       -0.294639      0.142721      0.151918
   41 Atom       -0.294540      0.142657      0.151883
   42 Atom       -0.304295      0.148477      0.155817
   43 Atom       -0.301942      0.146693      0.155249
   44 Atom       -0.301918      0.146683      0.155235
 -----------------------------------------------------

 Test job not archived.
 1|1|UNPC-NP-ALMACH|FOpt|RB3LYP|6-311++G(d,p)|C15H25N2O2(1+)|HERA|05-Se
 p-2018|0||# RB3LYP/6-311++G** Opt Test prop=EFG||C15N2H25O2||1,1|N,1.1
 746077861,-2.8930407453,0.7623688413|C,0.8461127416,0.6570346088,-0.08
 74657319|C,1.4089613868,-0.5629792309,0.2131784166|C,0.5974515432,-1.6
 984767855,0.4669440122|C,-0.8081666038,-1.54167926,0.4019502497|C,-1.3
 6068202,-0.3134767938,0.0988088776|C,-0.5535438852,0.8100196359,-0.152
 1320437|C,-1.2100666063,2.0695381683,-0.4658864283|O,-0.3055562323,3.1
 13816145,-0.701970821|O,-2.3976836182,2.288025659,-0.5402762828|C,-0.9
 30066631,4.3509243145,-0.9926345822|C,0.2259179888,5.3246232382,-1.192
 7957085|N,-0.2291803841,6.6455090408,-1.7862433705|C,-1.2130671867,7.3
 795197095,-0.9136042298|C,0.9464201386,7.517633333,-2.1355317262|C,0.4
 599883672,-4.1318142984,1.0501035708|C,1.440155318,-5.2708841864,1.326
 5166796|C,0.7358154974,-6.5954961809,1.6419164831|C,1.7160938789,-7.73
 90133151,1.9166525438|H,2.1816261955,-2.9277483304,0.7943841135|H,1.49
 00542653,1.5064714998,-0.275016458|H,2.4882484652,-0.6640822673,0.2594
 161736|H,-1.4576293687,-2.3859213283,0.5901081123|H,-2.4371749472,-0.2
 026286666,0.0506034668|H,-1.5439072202,4.269810887,-1.8996382651|H,-1.
 5890213206,4.646280636,-0.1726410292|H,0.7333950153,5.5543420075,-0.25
 49883729|H,0.9482516951,4.8997172684,-1.8903509658|H,-0.7112366546,6.4
 234266732,-2.6616635312|H,-1.4671672704,8.3237875346,-1.3922143381|H,-
 2.1081531475,6.77505211,-0.7889237965|H,-0.7441893302,7.5622293927,0.0
 522514509|H,0.5835677298,8.421478857,-2.6220855733|H,1.6069348263,6.96
 92232307,-2.8046727245|H,1.471416743,7.772163716,-1.2162595985|H,-0.19
 50583402,-3.9881843386,1.9186407513|H,-0.1813847085,-4.394172559,0.199
 4952861|H,2.0923414474,-5.4041149564,0.4545272873|H,2.086544584,-4.993
 5425084,2.1685782187|H,0.0808460339,-6.4589871316,2.5101255343|H,0.083
 2461811,-6.866553596,0.8039207207|H,1.1853244259,-8.6681280863,2.13717
 62598|H,2.3627786978,-7.9232897583,1.0535326135|H,2.3592345232,-7.5133
 193422,2.7725759144||Version=EM64W-G09RevD.01|State=1-A|HF=-846.630654
 1|RMSD=4.481e-009|RMSF=1.052e-005|Dipole=0.9047877,8.2577708,-2.149888
 7|Quadrupole=-53.2416016,98.9294135,-45.6878118,-6.3472389,0.7435541,-
 39.4185277|PG=C01 [X(C15H25N2O2)]||@


 EVERY WORD THAT YOU WRITE IS A BLOW THAT SMITES THE DEVIL.
     -- ST. BERNARD OF CLAIRVAUX
 Job cpu time:       0 days  2 hours 23 minutes 26.0 seconds.
 File lengths (MBytes):  RWF=    183 Int=      0 D2E=      0 Chk=     31 Scr=      1
 Normal termination of Gaussian 09 at Wed Sep 05 18:03:57 2018.
