 Entering Link 1 = C:\G09W\l1.exe PID=      1692.
  
 Copyright (c) 1988,1990,1992,1993,1995,1998,2003,2009,2013,
            Gaussian, Inc.  All Rights Reserved.
  
 This is part of the Gaussian(R) 09 program.  It is based on
 the Gaussian(R) 03 system (copyright 2003, Gaussian, Inc.),
 the Gaussian(R) 98 system (copyright 1998, Gaussian, Inc.),
 the Gaussian(R) 94 system (copyright 1995, Gaussian, Inc.),
 the Gaussian 92(TM) system (copyright 1992, Gaussian, Inc.),
 the Gaussian 90(TM) system (copyright 1990, Gaussian, Inc.),
 the Gaussian 88(TM) system (copyright 1988, Gaussian, Inc.),
 the Gaussian 86(TM) system (copyright 1986, Carnegie Mellon
 University), and the Gaussian 82(TM) system (copyright 1983,
 Carnegie Mellon University). Gaussian is a federally registered
 trademark of Gaussian, Inc.
  
 This software contains proprietary and confidential information,
 including trade secrets, belonging to Gaussian, Inc.
  
 This software is provided under written license and may be
 used, copied, transmitted, or stored only in accord with that
 written license.
  
 The following legend is applicable only to US Government
 contracts under FAR:
  
                    RESTRICTED RIGHTS LEGEND
  
 Use, reproduction and disclosure by the US Government is
 subject to restrictions as set forth in subparagraphs (a)
 and (c) of the Commercial Computer Software - Restricted
 Rights clause in FAR 52.227-19.
  
 Gaussian, Inc.
 340 Quinnipiac St., Bldg. 40, Wallingford CT 06492
  
  
 ---------------------------------------------------------------
 Warning -- This program may not be used in any manner that
 competes with the business of Gaussian, Inc. or will provide
 assistance to any competitor of Gaussian, Inc.  The licensee
 of this program is prohibited from giving any competitor of
 Gaussian, Inc. access to this program.  By using this program,
 the user acknowledges that Gaussian, Inc. is engaged in the
 business of creating and licensing software in the field of
 computational chemistry and represents and warrants to the
 licensee that it is not a competitor of Gaussian, Inc. and that
 it will not use this program in any manner prohibited above.
 ---------------------------------------------------------------
  

 Cite this work as:
 Gaussian 09, Revision D.01,
 M. J. Frisch, G. W. Trucks, H. B. Schlegel, G. E. Scuseria, 
 M. A. Robb, J. R. Cheeseman, G. Scalmani, V. Barone, B. Mennucci, 
 G. A. Petersson, H. Nakatsuji, M. Caricato, X. Li, H. P. Hratchian, 
 A. F. Izmaylov, J. Bloino, G. Zheng, J. L. Sonnenberg, M. Hada, 
 M. Ehara, K. Toyota, R. Fukuda, J. Hasegawa, M. Ishida, T. Nakajima, 
 Y. Honda, O. Kitao, H. Nakai, T. Vreven, J. A. Montgomery, Jr., 
 J. E. Peralta, F. Ogliaro, M. Bearpark, J. J. Heyd, E. Brothers, 
 K. N. Kudin, V. N. Staroverov, T. Keith, R. Kobayashi, J. Normand, 
 K. Raghavachari, A. Rendell, J. C. Burant, S. S. Iyengar, J. Tomasi, 
 M. Cossi, N. Rega, J. M. Millam, M. Klene, J. E. Knox, J. B. Cross, 
 V. Bakken, C. Adamo, J. Jaramillo, R. Gomperts, R. E. Stratmann, 
 O. Yazyev, A. J. Austin, R. Cammi, C. Pomelli, J. W. Ochterski, 
 R. L. Martin, K. Morokuma, V. G. Zakrzewski, G. A. Voth, 
 P. Salvador, J. J. Dannenberg, S. Dapprich, A. D. Daniels, 
 O. Farkas, J. B. Foresman, J. V. Ortiz, J. Cioslowski, 
 and D. J. Fox, Gaussian, Inc., Wallingford CT, 2013.
 
 ******************************************
 Gaussian 09:  EM64W-G09RevD.01 13-Apr-2013
                24-Aug-2018 
 ******************************************
 %Chk=Anth_356.chk
 %Mem=64GB
 %NProcShared=20
 Will use up to   20 processors via shared memory.
 -------------------------------------
 # RB3LYP/6-311++G** Opt Test prop=EFG
 -------------------------------------
 1/14=-1,18=20,19=15,26=3,38=1/1,3;
 2/9=110,12=2,17=6,18=5,40=1/2;
 3/5=4,6=6,7=1111,11=2,16=1,25=1,30=1,71=1,74=-5,116=1/1,2,3;
 4//1;
 5/5=2,38=5/2;
 6/7=2,8=2,9=2,10=2,14=1,28=1/1,2;
 7//1,2,3,16;
 1/14=-1,18=20,19=15,26=3/3(2);
 2/9=110/2;
 99//99;
 2/9=110/2;
 3/5=4,6=6,7=1111,11=2,16=1,25=1,30=1,71=1,74=-5,116=1/1,2,3;
 4/5=5,16=3,69=1/1;
 5/5=2,38=5/2;
 7//1,2,3,16;
 1/14=-1,18=20,19=15,26=3/3(-5);
 2/9=110/2;
 6/7=2,8=2,9=2,10=2,14=1,19=2,28=1/1,2;
 99/9=1/99;
 ----------
 C13N2H21O2
 ----------
 Symbolic Z-matrix:
 Charge =  1 Multiplicity = 1
 N                     1.83387  -5.65693   2.25424 
 C                     1.45782  -2.34385   1.24279 
 C                     2.03875  -3.49676   1.61207 
 C                     1.28645  -4.56817   1.90554 
 C                    -0.04959  -4.47558   1.82618 
 C                    -0.62754  -3.32105   1.45639 
 C                     0.11761  -2.2384    1.1596 
 C                    -0.45179  -1.05473   0.78096 
 O                     0.32256   0.04972   0.483 
 O                    -1.65795  -0.92243   0.6988 
 C                    -0.33806   1.25668   0.17452 
 C                     0.68751   2.37661  -0.00985 
 N                    -0.02084   3.65518  -0.43588 
 C                    -0.9663    4.19758   0.62295 
 C                     0.98167   4.6888   -0.91575 
 C                     0.23285   5.79324  -1.67471 
 C                    -2.3876    4.03519   0.07159 
 H                     1.24364  -6.49383   2.48331 
 H                     2.87915  -5.72668   2.31542 
 H                     2.1204   -1.49287   1.0117 
 H                     3.13932  -3.55412   1.67147 
 H                    -0.68371  -5.34711   2.0639 
 H                    -1.72905  -3.30288   1.40813 
 H                    -0.91412   1.12494  -0.7718 
 H                    -1.02743   1.50459   1.01341 
 H                     1.27557   2.54702   0.92155 
 H                     1.39716   2.05864  -0.81 
 H                    -0.60506   3.40499  -1.26825 
 H                    -0.84726   3.6702    1.59553 
 H                    -0.77068   5.27017   0.84559 
 H                     1.56998   5.09885  -0.06282 
 H                     1.69543   4.21397  -1.63025 
 H                     0.95503   6.49383  -2.15418 
 H                    -0.40147   5.3626   -2.48331 
 H                    -0.41953   6.41104  -1.01976 
 H                    -3.13932   4.41834   0.79941 
 H                    -2.51841   4.60357  -0.8775 
 H                    -2.63615   2.97035  -0.13527 
 

 GradGradGradGradGradGradGradGradGradGradGradGradGradGradGradGradGradGrad
 Berny optimization.
 Initialization pass.
                           ----------------------------
                           !    Initial Parameters    !
                           ! (Angstroms and Degrees)  !
 --------------------------                            --------------------------
 ! Name  Definition              Value          Derivative Info.                !
 --------------------------------------------------------------------------------
 ! R1    R(1,4)                  1.2675         estimate D2E/DX2                !
 ! R2    R(1,18)                 1.0494         estimate D2E/DX2                !
 ! R3    R(1,19)                 1.0494         estimate D2E/DX2                !
 ! R4    R(2,3)                  1.3428         estimate D2E/DX2                !
 ! R5    R(2,7)                  1.3469         estimate D2E/DX2                !
 ! R6    R(2,20)                 1.103          estimate D2E/DX2                !
 ! R7    R(3,4)                  1.3416         estimate D2E/DX2                !
 ! R8    R(3,21)                 1.1037         estimate D2E/DX2                !
 ! R9    R(4,5)                  1.3416         estimate D2E/DX2                !
 ! R10   R(5,6)                  1.343          estimate D2E/DX2                !
 ! R11   R(5,22)                 1.1037         estimate D2E/DX2                !
 ! R12   R(6,7)                  1.3474         estimate D2E/DX2                !
 ! R13   R(6,23)                 1.1027         estimate D2E/DX2                !
 ! R14   R(7,8)                  1.367          estimate D2E/DX2                !
 ! R15   R(8,9)                  1.3814         estimate D2E/DX2                !
 ! R16   R(8,10)                 1.2162         estimate D2E/DX2                !
 ! R17   R(9,11)                 1.4101         estimate D2E/DX2                !
 ! R18   R(11,12)                1.5297         estimate D2E/DX2                !
 ! R19   R(11,24)                1.1157         estimate D2E/DX2                !
 ! R20   R(11,25)                1.1137         estimate D2E/DX2                !
 ! R21   R(12,13)                1.5225         estimate D2E/DX2                !
 ! R22   R(12,26)                1.1146         estimate D2E/DX2                !
 ! R23   R(12,27)                1.1158         estimate D2E/DX2                !
 ! R24   R(13,14)                1.5196         estimate D2E/DX2                !
 ! R25   R(13,15)                1.5178         estimate D2E/DX2                !
 ! R26   R(13,28)                1.0473         estimate D2E/DX2                !
 ! R27   R(14,17)                1.5331         estimate D2E/DX2                !
 ! R28   R(14,29)                1.1127         estimate D2E/DX2                !
 ! R29   R(14,30)                1.1128         estimate D2E/DX2                !
 ! R30   R(15,16)                1.5351         estimate D2E/DX2                !
 ! R31   R(15,31)                1.1143         estimate D2E/DX2                !
 ! R32   R(15,32)                1.116          estimate D2E/DX2                !
 ! R33   R(16,33)                1.1146         estimate D2E/DX2                !
 ! R34   R(16,34)                1.1143         estimate D2E/DX2                !
 ! R35   R(16,35)                1.1119         estimate D2E/DX2                !
 ! R36   R(17,36)                1.1143         estimate D2E/DX2                !
 ! R37   R(17,37)                1.114          estimate D2E/DX2                !
 ! R38   R(17,38)                1.1129         estimate D2E/DX2                !
 ! A1    A(4,1,18)             120.1439         estimate D2E/DX2                !
 ! A2    A(4,1,19)             120.2193         estimate D2E/DX2                !
 ! A3    A(18,1,19)            119.6368         estimate D2E/DX2                !
 ! A4    A(3,2,7)              120.9763         estimate D2E/DX2                !
 ! A5    A(3,2,20)             117.397          estimate D2E/DX2                !
 ! A6    A(7,2,20)             121.6267         estimate D2E/DX2                !
 ! A7    A(2,3,4)              120.2136         estimate D2E/DX2                !
 ! A8    A(2,3,21)             119.3963         estimate D2E/DX2                !
 ! A9    A(4,3,21)             120.3901         estimate D2E/DX2                !
 ! A10   A(1,4,3)              120.2623         estimate D2E/DX2                !
 ! A11   A(1,4,5)              120.3733         estimate D2E/DX2                !
 ! A12   A(3,4,5)              119.3644         estimate D2E/DX2                !
 ! A13   A(4,5,6)              120.2757         estimate D2E/DX2                !
 ! A14   A(4,5,22)             120.3262         estimate D2E/DX2                !
 ! A15   A(6,5,22)             119.3981         estimate D2E/DX2                !
 ! A16   A(5,6,7)              120.8911         estimate D2E/DX2                !
 ! A17   A(5,6,23)             117.1343         estimate D2E/DX2                !
 ! A18   A(7,6,23)             121.9746         estimate D2E/DX2                !
 ! A19   A(2,7,6)              118.2789         estimate D2E/DX2                !
 ! A20   A(2,7,8)              119.9573         estimate D2E/DX2                !
 ! A21   A(6,7,8)              121.7638         estimate D2E/DX2                !
 ! A22   A(7,8,9)              121.2356         estimate D2E/DX2                !
 ! A23   A(7,8,10)             121.7365         estimate D2E/DX2                !
 ! A24   A(9,8,10)             117.0264         estimate D2E/DX2                !
 ! A25   A(8,9,11)             117.9639         estimate D2E/DX2                !
 ! A26   A(9,11,12)            109.8112         estimate D2E/DX2                !
 ! A27   A(9,11,24)            109.0497         estimate D2E/DX2                !
 ! A28   A(9,11,25)            108.4054         estimate D2E/DX2                !
 ! A29   A(12,11,24)           109.2916         estimate D2E/DX2                !
 ! A30   A(12,11,25)           110.0471         estimate D2E/DX2                !
 ! A31   A(24,11,25)           110.2175         estimate D2E/DX2                !
 ! A32   A(11,12,13)           109.6714         estimate D2E/DX2                !
 ! A33   A(11,12,26)           111.4034         estimate D2E/DX2                !
 ! A34   A(11,12,27)           107.7106         estimate D2E/DX2                !
 ! A35   A(13,12,26)           110.5417         estimate D2E/DX2                !
 ! A36   A(13,12,27)           109.546          estimate D2E/DX2                !
 ! A37   A(26,12,27)           107.8943         estimate D2E/DX2                !
 ! A38   A(12,13,14)           113.219          estimate D2E/DX2                !
 ! A39   A(12,13,15)           110.6749         estimate D2E/DX2                !
 ! A40   A(12,13,28)           106.3389         estimate D2E/DX2                !
 ! A41   A(14,13,15)           112.8408         estimate D2E/DX2                !
 ! A42   A(14,13,28)           106.9777         estimate D2E/DX2                !
 ! A43   A(15,13,28)           106.2522         estimate D2E/DX2                !
 ! A44   A(13,14,17)           106.7622         estimate D2E/DX2                !
 ! A45   A(13,14,29)           111.9177         estimate D2E/DX2                !
 ! A46   A(13,14,30)           111.9671         estimate D2E/DX2                !
 ! A47   A(17,14,29)           111.3034         estimate D2E/DX2                !
 ! A48   A(17,14,30)           109.6958         estimate D2E/DX2                !
 ! A49   A(29,14,30)           105.2572         estimate D2E/DX2                !
 ! A50   A(13,15,16)           108.9094         estimate D2E/DX2                !
 ! A51   A(13,15,31)           110.935          estimate D2E/DX2                !
 ! A52   A(13,15,32)           109.5792         estimate D2E/DX2                !
 ! A53   A(16,15,31)           111.7909         estimate D2E/DX2                !
 ! A54   A(16,15,32)           107.5515         estimate D2E/DX2                !
 ! A55   A(31,15,32)           107.996          estimate D2E/DX2                !
 ! A56   A(15,16,33)           110.4172         estimate D2E/DX2                !
 ! A57   A(15,16,34)           111.0029         estimate D2E/DX2                !
 ! A58   A(15,16,35)           113.2495         estimate D2E/DX2                !
 ! A59   A(33,16,34)           107.4341         estimate D2E/DX2                !
 ! A60   A(33,16,35)           106.5175         estimate D2E/DX2                !
 ! A61   A(34,16,35)           107.9501         estimate D2E/DX2                !
 ! A62   A(14,17,36)           110.7377         estimate D2E/DX2                !
 ! A63   A(14,17,37)           111.1749         estimate D2E/DX2                !
 ! A64   A(14,17,38)           112.0402         estimate D2E/DX2                !
 ! A65   A(36,17,37)           107.5677         estimate D2E/DX2                !
 ! A66   A(36,17,38)           107.4433         estimate D2E/DX2                !
 ! A67   A(37,17,38)           107.6753         estimate D2E/DX2                !
 ! D1    D(18,1,4,3)          -179.9958         estimate D2E/DX2                !
 ! D2    D(18,1,4,5)            -0.0008         estimate D2E/DX2                !
 ! D3    D(19,1,4,3)            -0.0013         estimate D2E/DX2                !
 ! D4    D(19,1,4,5)           179.9937         estimate D2E/DX2                !
 ! D5    D(7,2,3,4)              0.0037         estimate D2E/DX2                !
 ! D6    D(7,2,3,21)           179.9937         estimate D2E/DX2                !
 ! D7    D(20,2,3,4)          -179.9723         estimate D2E/DX2                !
 ! D8    D(20,2,3,21)            0.0177         estimate D2E/DX2                !
 ! D9    D(3,2,7,6)             -0.0196         estimate D2E/DX2                !
 ! D10   D(3,2,7,8)           -179.9743         estimate D2E/DX2                !
 ! D11   D(20,2,7,6)           179.9555         estimate D2E/DX2                !
 ! D12   D(20,2,7,8)             0.0007         estimate D2E/DX2                !
 ! D13   D(2,3,4,1)           -179.9992         estimate D2E/DX2                !
 ! D14   D(2,3,4,5)              0.0058         estimate D2E/DX2                !
 ! D15   D(21,3,4,1)             0.0108         estimate D2E/DX2                !
 ! D16   D(21,3,4,5)          -179.9842         estimate D2E/DX2                !
 ! D17   D(1,4,5,6)           -179.9939         estimate D2E/DX2                !
 ! D18   D(1,4,5,22)            -0.004          estimate D2E/DX2                !
 ! D19   D(3,4,5,6)              0.0011         estimate D2E/DX2                !
 ! D20   D(3,4,5,22)           179.991          estimate D2E/DX2                !
 ! D21   D(4,5,6,7)             -0.0176         estimate D2E/DX2                !
 ! D22   D(4,5,6,23)           179.9815         estimate D2E/DX2                !
 ! D23   D(22,5,6,7)           179.9925         estimate D2E/DX2                !
 ! D24   D(22,5,6,23)           -0.0085         estimate D2E/DX2                !
 ! D25   D(5,6,7,2)              0.0265         estimate D2E/DX2                !
 ! D26   D(5,6,7,8)            179.9803         estimate D2E/DX2                !
 ! D27   D(23,6,7,2)          -179.9725         estimate D2E/DX2                !
 ! D28   D(23,6,7,8)            -0.0187         estimate D2E/DX2                !
 ! D29   D(2,7,8,9)             -0.2443         estimate D2E/DX2                !
 ! D30   D(2,7,8,10)          -179.7887         estimate D2E/DX2                !
 ! D31   D(6,7,8,9)            179.8026         estimate D2E/DX2                !
 ! D32   D(6,7,8,10)             0.2582         estimate D2E/DX2                !
 ! D33   D(7,8,9,11)          -176.4305         estimate D2E/DX2                !
 ! D34   D(10,8,9,11)            3.1346         estimate D2E/DX2                !
 ! D35   D(8,9,11,12)          175.3546         estimate D2E/DX2                !
 ! D36   D(8,9,11,24)          -64.9165         estimate D2E/DX2                !
 ! D37   D(8,9,11,25)           55.0979         estimate D2E/DX2                !
 ! D38   D(9,11,12,13)         176.1524         estimate D2E/DX2                !
 ! D39   D(9,11,12,26)         -61.1393         estimate D2E/DX2                !
 ! D40   D(9,11,12,27)          56.9997         estimate D2E/DX2                !
 ! D41   D(24,11,12,13)         56.5713         estimate D2E/DX2                !
 ! D42   D(24,11,12,26)        179.2796         estimate D2E/DX2                !
 ! D43   D(24,11,12,27)        -62.5814         estimate D2E/DX2                !
 ! D44   D(25,11,12,13)        -64.5925         estimate D2E/DX2                !
 ! D45   D(25,11,12,26)         58.1159         estimate D2E/DX2                !
 ! D46   D(25,11,12,27)        176.2549         estimate D2E/DX2                !
 ! D47   D(11,12,13,14)         64.5035         estimate D2E/DX2                !
 ! D48   D(11,12,13,15)       -167.6646         estimate D2E/DX2                !
 ! D49   D(11,12,13,28)        -52.6817         estimate D2E/DX2                !
 ! D50   D(26,12,13,14)        -58.7141         estimate D2E/DX2                !
 ! D51   D(26,12,13,15)         69.1177         estimate D2E/DX2                !
 ! D52   D(26,12,13,28)       -175.8994         estimate D2E/DX2                !
 ! D53   D(27,12,13,14)       -177.4793         estimate D2E/DX2                !
 ! D54   D(27,12,13,15)        -49.6475         estimate D2E/DX2                !
 ! D55   D(27,12,13,28)         65.3354         estimate D2E/DX2                !
 ! D56   D(12,13,14,17)       -111.976          estimate D2E/DX2                !
 ! D57   D(12,13,14,29)         10.0415         estimate D2E/DX2                !
 ! D58   D(12,13,14,30)        127.956          estimate D2E/DX2                !
 ! D59   D(15,13,14,17)        121.3285         estimate D2E/DX2                !
 ! D60   D(15,13,14,29)       -116.654          estimate D2E/DX2                !
 ! D61   D(15,13,14,30)          1.2605         estimate D2E/DX2                !
 ! D62   D(28,13,14,17)          4.8341         estimate D2E/DX2                !
 ! D63   D(28,13,14,29)        126.8516         estimate D2E/DX2                !
 ! D64   D(28,13,14,30)       -115.2339         estimate D2E/DX2                !
 ! D65   D(12,13,15,16)        165.0289         estimate D2E/DX2                !
 ! D66   D(12,13,15,31)        -71.5229         estimate D2E/DX2                !
 ! D67   D(12,13,15,32)         47.6309         estimate D2E/DX2                !
 ! D68   D(14,13,15,16)        -66.9331         estimate D2E/DX2                !
 ! D69   D(14,13,15,31)         56.5152         estimate D2E/DX2                !
 ! D70   D(14,13,15,32)        175.669          estimate D2E/DX2                !
 ! D71   D(28,13,15,16)         49.9916         estimate D2E/DX2                !
 ! D72   D(28,13,15,31)        173.4398         estimate D2E/DX2                !
 ! D73   D(28,13,15,32)        -67.4064         estimate D2E/DX2                !
 ! D74   D(13,14,17,36)       -179.8038         estimate D2E/DX2                !
 ! D75   D(13,14,17,37)        -60.2805         estimate D2E/DX2                !
 ! D76   D(13,14,17,38)         60.257          estimate D2E/DX2                !
 ! D77   D(29,14,17,36)         57.7924         estimate D2E/DX2                !
 ! D78   D(29,14,17,37)        177.3157         estimate D2E/DX2                !
 ! D79   D(29,14,17,38)        -62.1468         estimate D2E/DX2                !
 ! D80   D(30,14,17,36)        -58.2856         estimate D2E/DX2                !
 ! D81   D(30,14,17,37)         61.2377         estimate D2E/DX2                !
 ! D82   D(30,14,17,38)       -178.2248         estimate D2E/DX2                !
 ! D83   D(13,15,16,33)       -172.4895         estimate D2E/DX2                !
 ! D84   D(13,15,16,34)        -53.4538         estimate D2E/DX2                !
 ! D85   D(13,15,16,35)         68.1633         estimate D2E/DX2                !
 ! D86   D(31,15,16,33)         64.5741         estimate D2E/DX2                !
 ! D87   D(31,15,16,34)       -176.3903         estimate D2E/DX2                !
 ! D88   D(31,15,16,35)        -54.7732         estimate D2E/DX2                !
 ! D89   D(32,15,16,33)        -53.8126         estimate D2E/DX2                !
 ! D90   D(32,15,16,34)         65.2231         estimate D2E/DX2                !
 ! D91   D(32,15,16,35)       -173.1598         estimate D2E/DX2                !
 --------------------------------------------------------------------------------
 Trust Radius=3.00D-01 FncErr=1.00D-07 GrdErr=1.00D-06
 Number of steps in this run=    206 maximum allowed number of steps=    228.
 GradGradGradGradGradGradGradGradGradGradGradGradGradGradGradGradGradGrad

                          Input orientation:                          
 ---------------------------------------------------------------------
 Center     Atomic      Atomic             Coordinates (Angstroms)
 Number     Number       Type             X           Y           Z
 ---------------------------------------------------------------------
      1          7           0        1.833866   -5.656929    2.254238
      2          6           0        1.457815   -2.343847    1.242791
      3          6           0        2.038752   -3.496763    1.612066
      4          6           0        1.286454   -4.568166    1.905542
      5          6           0       -0.049593   -4.475583    1.826181
      6          6           0       -0.627538   -3.321051    1.456390
      7          6           0        0.117609   -2.238401    1.159600
      8          6           0       -0.451790   -1.054727    0.780956
      9          8           0        0.322561    0.049721    0.482998
     10          8           0       -1.657952   -0.922425    0.698798
     11          6           0       -0.338064    1.256679    0.174524
     12          6           0        0.687508    2.376606   -0.009852
     13          7           0       -0.020840    3.655181   -0.435875
     14          6           0       -0.966299    4.197583    0.622953
     15          6           0        0.981670    4.688803   -0.915748
     16          6           0        0.232852    5.793235   -1.674714
     17          6           0       -2.387603    4.035187    0.071588
     18          1           0        1.243641   -6.493833    2.483311
     19          1           0        2.879146   -5.726682    2.315416
     20          1           0        2.120400   -1.492868    1.011701
     21          1           0        3.139316   -3.554119    1.671473
     22          1           0       -0.683708   -5.347108    2.063896
     23          1           0       -1.729051   -3.302878    1.408134
     24          1           0       -0.914116    1.124942   -0.771800
     25          1           0       -1.027427    1.504592    1.013413
     26          1           0        1.275569    2.547023    0.921550
     27          1           0        1.397164    2.058637   -0.810004
     28          1           0       -0.605055    3.404989   -1.268249
     29          1           0       -0.847256    3.670199    1.595527
     30          1           0       -0.770677    5.270170    0.845591
     31          1           0        1.569978    5.098847   -0.062824
     32          1           0        1.695433    4.213966   -1.630246
     33          1           0        0.955032    6.493833   -2.154178
     34          1           0       -0.401467    5.362603   -2.483311
     35          1           0       -0.419526    6.411039   -1.019758
     36          1           0       -3.139316    4.418339    0.799405
     37          1           0       -2.518411    4.603573   -0.877504
     38          1           0       -2.636154    2.970346   -0.135270
 ---------------------------------------------------------------------
                    Distance matrix (angstroms):
                    1          2          3          4          5
     1  N    0.000000
     2  C    3.484387   0.000000
     3  C    2.262892   1.342783   0.000000
     4  C    1.267538   2.327273   1.341635   0.000000
     5  C    2.264118   2.675242   2.316273   1.341600   0.000000
     6  C    3.485885   2.312844   2.676605   2.328175   1.343023
     7  C    3.978706   1.346919   2.340724   2.711168   2.340357
     8  C    5.345563   2.349833   3.585677   4.078044   3.599516
     9  O    6.163375   2.755949   4.098494   4.927231   4.735083
    10  O    6.085040   3.467618   4.596400   4.839131   4.059894
    11  C    7.539262   4.162951   5.505542   6.290016   5.972438
    12  C    8.424840   4.944205   6.241229   7.228923   7.132099
    13  N    9.868740   6.402552   7.719215   8.649548   8.439612
    14  C   10.373689   7.003630   8.319353   9.141022   8.804085
    15  C   10.853996   7.371850   8.631961   9.682151   9.621208
    16  C   12.210904   8.730663  10.018396  11.013035  10.852864
    17  C   10.794530   7.539962   8.871074   9.533088   8.998783
    18  H    1.049404   4.336720   3.220823   2.010931   2.485479
    19  H    1.049390   3.822863   2.484653   2.011672   3.222128
    20  H    4.354929   1.102990   2.093490   3.309362   3.777411
    21  H    2.542759   2.115649   1.103658   2.125130   3.322976
    22  H    2.543698   3.778877   3.322607   2.124468   1.103706
    23  H    4.353369   3.332146   3.778296   3.307815   2.090593
    24  H    7.918465   4.660164   5.980168   6.664994   6.234002
    25  H    7.811148   4.586886   5.896897   6.559598   6.113857
    26  H    8.330221   4.904795   6.130792   7.182915   7.203569
    27  H    8.313257   4.857933   6.094303   7.162469   7.192955
    28  H   10.023702   6.603777   7.932220   8.787602   8.484542
    29  H    9.727160   6.450312   7.726232   8.515837   8.187993
    30  H   11.321194   7.943375   9.237938  10.106836   9.821467
    31  H   11.005686   7.557176   8.769807   9.869447   9.892475
    32  H   10.608626   7.163499   8.371726   9.476017   9.513163
    33  H   12.955597   9.481391  10.731778  11.788087  11.712413
    34  H   12.201277   8.759574  10.060574  10.987779  10.746415
    35  H   12.705616   9.235343  10.542019  11.489591  11.258542
    36  H   11.329612   8.188856   9.493242  10.078108   9.471141
    37  H   11.577047   8.280862   9.621909  10.312281   9.789589
    38  H   10.006033   6.848378   8.168931   8.739618   8.122773
                    6          7          8          9         10
     6  C    0.000000
     7  C    1.347390   0.000000
     8  C    2.371355   1.366993   0.000000
     9  O    3.634871   2.394848   1.381378   0.000000
    10  O    2.718291   2.257598   1.216175   2.216770   0.000000
    11  C    4.762624   3.659726   2.392340   1.410081   2.601050
    12  C    6.028475   4.794861   3.701003   2.406342   4.109376
    13  N    7.253727   6.107292   4.883608   3.736522   4.992203
    14  C    7.572267   6.548644   5.279815   4.345746   5.167071
    15  C    8.507312   7.282845   6.158064   4.889989   6.407827
    16  C    9.675448   8.517851   7.307095   6.136100   7.369450
    17  C    7.689587   6.842351   5.491612   4.837167   5.050119
    18  H    3.823928   4.596614   5.946123   6.904183   6.530262
    19  H    4.338412   4.596749   5.939433   6.577288   6.802911
    20  H    3.330340   2.142164   2.619422   2.427207   3.833961
    21  H    3.780181   3.335242   4.464977   4.725912   5.557490
    22  H    2.115922   3.335254   4.486007   5.712931   4.731856
    23  H    1.102719   2.145934   2.660626   4.037934   2.484908
    24  H    4.981346   4.013333   2.715834   2.063974   2.628243
    25  H    4.862404   3.916947   2.633535   2.054375   2.527243
    26  H    6.192105   4.929282   3.997016   2.708703   4.548872
    27  H    6.178754   4.897054   3.955101   2.619612   4.527356
    28  H    7.256981   6.185834   4.910377   3.896814   4.868714
    29  H    6.996085   6.002712   4.810909   3.964096   4.749057
    30  H    8.614096   7.567450   6.333261   5.346001   6.257558
    31  H    8.833559   7.578846   6.531920   5.229498   6.874250
    32  H    8.467585   7.204569   6.179287   4.867393   6.561414
    33  H   10.576988   9.377330   8.220396   6.991516   8.364690
    34  H    9.538249   8.444851   7.200007   6.127799   7.155847
    35  H   10.044310   8.935935   7.679927   6.578399   7.633271
    36  H    8.163260   7.419534   6.097343   5.582968   5.543313
    37  H    8.474794   7.609928   6.248021   5.537116   5.810488
    38  H    6.793349   6.032491   4.670346   4.203130   4.099538
                   11         12         13         14         15
    11  C    0.000000
    12  C    1.529715   0.000000
    13  N    2.495201   1.522500   0.000000
    14  C    3.040507   2.539976   1.519608   0.000000
    15  C    3.835344   2.500687   1.517787   2.530510   0.000000
    16  C    4.932136   3.827771   2.484020   3.043574   1.535099
    17  C    3.454173   3.494829   2.450202   1.533128   3.571281
    18  H    8.240311   9.230917  10.635932  11.074798  11.690748
    19  H    7.981302   8.710535  10.197984  10.776962  11.069018
    20  H    3.782184   4.250833   5.760451   6.485373   6.574559
    21  H    6.121830   6.634133   8.148712   8.834271   8.904769
    22  H    6.877441   8.113965   9.366400   9.656982  10.600532
    23  H    4.924043   6.333007   7.398171   7.579922   8.753022
    24  H    1.115670   2.170813   2.704237   3.374786   4.039286
    25  H    1.113740   2.179101   2.781849   2.721837   4.230524
    26  H    2.197009   1.114615   2.179746   2.799907   2.837122
    27  H    2.150221   1.115777   2.167870   3.494912   2.664881
    28  H    2.601560   2.076500   1.047258   2.082150   2.071263
    29  H    2.846683   2.570238   2.193122   1.112747   3.269408
    30  H    4.092138   3.351238   2.193764   1.112780   2.551671
    31  H    4.296419   2.862194   2.180376   2.777637   1.114326
    32  H    4.017194   2.649053   2.164337   3.487405   1.115991
    33  H    5.875605   4.649867   3.458733   4.083716   2.189190
    34  H    4.891495   4.027412   2.692984   3.365291   2.196435
    35  H    5.291538   4.303729   2.845105   2.810133   2.222671
    36  H    4.270080   4.412273   3.439945   2.191317   4.471848
    37  H    4.130663   3.998765   2.707830   2.196645   3.501327
    38  H    2.883374   3.378607   2.720153   2.206678   4.080550
                   16         17         18         19         20
    16  C    0.000000
    17  C    3.606534   0.000000
    18  H   13.010876  11.395727   0.000000
    19  H   12.475275  11.316691   1.814273   0.000000
    20  H    7.991681   7.194810   5.286208   4.494502   0.000000
    21  H   10.344928   9.523866   3.590903   2.280873   2.392121
    22  H   11.786625   9.741664   2.281570   3.591833   4.881117
    23  H    9.802667   7.487806   4.491670   5.285212   4.272185
    24  H    4.891191   3.369272   8.561390   8.418105   4.386581
    25  H    5.216013   3.023413   8.443527   8.321529   4.346675
    26  H    4.285527   4.044242   9.174813   8.542161   4.128267
    27  H    4.006316   4.359864   9.165928   8.519138   4.056460
    28  H    2.563400   2.317281  10.746095  10.410078   6.051056
    29  H    4.045787   2.197334  10.414776  10.134381   5.983736
    30  H    2.762717   2.176859  12.047048  11.679570   7.356942
    31  H    2.206416   4.100230  11.873480  11.160736   6.701364
    32  H    2.152954   4.427119  11.479653  10.760386   6.303050
    33  H    1.114570   4.708735  13.793805  13.153725   8.669963
    34  H    1.114286   3.497753  12.959506  12.520481   8.097679
    35  H    1.111866   3.272466  13.474915  13.012644   8.546917
    36  H    4.402627   1.114269  11.879451  11.892923   7.915305
    37  H    3.101659   1.113979  12.190182  12.084806   7.890137
    38  H    4.309267   1.112859  10.558431  10.585967   6.622736
                   21         22         23         24         25
    21  H    0.000000
    22  H    4.240792   0.000000
    23  H    4.881953   2.387811   0.000000
    24  H    6.655337   7.069773   5.002182   0.000000
    25  H    6.586755   6.940277   4.874408   1.828649   0.000000
    26  H    6.423385   8.213466   6.594380   3.111988   2.529603
    27  H    6.379330   8.211844   6.590842   2.493043   3.083903
    28  H    8.431575   9.365286   7.309027   2.353847   2.999315
    29  H    8.251624   9.030944   7.031108   3.476642   2.249705
    30  H    9.687012  10.687302   8.644772   4.451903   3.778050
    31  H    8.963505  10.895871   9.145288   4.739756   4.563274
    32  H    8.563252  10.522411   8.801238   4.133854   4.663004
    33  H   10.971237  12.676178  10.764289   5.850613   6.233482
    34  H   10.455013  11.638499   9.591475   4.598897   5.244345
    35  H   10.918446  12.158649  10.098005   5.314972   5.345704
    36  H   10.185372  10.148542   7.872521   4.273952   3.604968
    37  H   10.249639  10.537268   8.267962   3.832207   3.924574
    38  H    8.898821   8.822042   6.523670   2.603095   2.460876
                   26         27         28         29         30
    26  H    0.000000
    27  H    1.803215   0.000000
    28  H    3.011324   2.455918   0.000000
    29  H    2.494425   3.663486   2.886210   0.000000
    30  H    3.407113   4.213606   2.823942   1.768665   0.000000
    31  H    2.750904   3.135446   3.008816   3.261010   2.516592
    32  H    3.076792   2.325340   2.465305   4.143255   3.650621
    33  H    5.013996   4.655454   3.572072   5.028065   3.670700
    34  H    4.725782   4.117186   2.313023   4.438455   3.350589
    35  H    4.644636   4.720992   3.022004   3.812463   2.214592
    36  H    4.796661   5.360787   3.424113   2.539107   2.517578
    37  H    4.675498   4.670437   2.291335   3.127272   2.543223
    38  H    4.074021   4.189765   2.365992   2.585654   3.119500
                   31         32         33         34         35
    31  H    0.000000
    32  H    1.804318   0.000000
    33  H    2.588031   2.453669   0.000000
    34  H    3.132877   2.538519   1.796691   0.000000
    35  H    2.568209   3.110125   1.784145   1.800425   0.000000
    36  H    4.835698   5.414773   5.458481   4.377634   3.831118
    37  H    4.198086   4.298243   4.155453   2.763367   2.773533
    38  H    4.714585   4.748072   5.421030   4.028649   4.187377
                   36         37         38
    36  H    0.000000
    37  H    1.797737   0.000000
    38  H    1.795403   1.797833   0.000000
 Stoichiometry    C13H21N2O2(1+)
 Framework group  C1[X(C13H21N2O2)]
 Deg. of freedom   108
 Full point group                 C1      NOp   1
 Largest Abelian subgroup         C1      NOp   1
 Largest concise Abelian subgroup C1      NOp   1
                         Standard orientation:                         
 ---------------------------------------------------------------------
 Center     Atomic      Atomic             Coordinates (Angstroms)
 Number     Number       Type             X           Y           Z
 ---------------------------------------------------------------------
      1          7           0       -6.205300   -0.847060    0.192371
      2          6           0       -2.724435   -0.970366    0.095785
      3          6           0       -4.003030   -1.367289    0.199300
      4          6           0       -4.998027   -0.473397    0.094787
      5          6           0       -4.702535    0.818507   -0.113922
      6          6           0       -3.422680    1.212245   -0.217129
      7          6           0       -2.415077    0.323728   -0.113527
      8          6           0       -1.106270    0.704734   -0.216136
      9          8           0       -0.081606   -0.214903   -0.104177
     10          8           0       -0.790218    1.864458   -0.401159
     11          6           0        1.244034    0.264057   -0.144256
     12          6           0        2.219044   -0.886888    0.110125
     13          7           0        3.650210   -0.386200   -0.028017
     14          6           0        4.026656    0.648489    1.019321
     15          6           0        4.622400   -1.550505   -0.082040
     16          6           0        5.978906   -1.042752   -0.590574
     17          6           0        4.212453    1.978650    0.279976
     18          1           0       -6.982117   -0.146302    0.110265
     19          1           0       -6.433685   -1.858217    0.355528
     20          1           0       -1.943742   -1.744008    0.188430
     21          1           0       -4.226823   -2.434333    0.370743
     22          1           0       -5.508554    1.567271   -0.202531
     23          1           0       -3.239091    2.285929   -0.388843
     24          1           0        1.443352    0.700150   -1.151636
     25          1           0        1.360163    1.043751    0.642515
     26          1           0        2.058882   -1.341015    1.115353
     27          1           0        2.023100   -1.673472   -0.656589
     28          1           0        3.707965    0.087357   -0.960304
     29          1           0        3.254331    0.733179    1.815906
     30          1           0        4.966947    0.380109    1.550456
     31          1           0        4.711546   -2.041340    0.914381
     32          1           0        4.253784   -2.312050   -0.809781
     33          1           0        6.671805   -1.897294   -0.769228
     34          1           0        5.865035   -0.497844   -1.555842
     35          1           0        6.491009   -0.365242    0.127043
     36          1           0        4.495285    2.788918    0.990657
     37          1           0        5.019534    1.904891   -0.484306
     38          1           0        3.282870    2.300666   -0.240250
 ---------------------------------------------------------------------
 Rotational constants (GHZ):      1.4884828      0.1465371      0.1362762
 Standard basis: 6-311++G(d,p) (5D, 7F)
 There are   538 symmetry adapted cartesian basis functions of A   symmetry.
 There are   521 symmetry adapted basis functions of A   symmetry.
   521 basis functions,   801 primitive gaussians,   538 cartesian basis functions
    64 alpha electrons       64 beta electrons
       nuclear repulsion energy      1191.8609542893 Hartrees.
 NAtoms=   38 NActive=   38 NUniq=   38 SFac= 1.00D+00 NAtFMM=   60 NAOKFM=F Big=F
 Integral buffers will be    131072 words long.
 Raffenetti 2 integral format.
 Two-electron integral symmetry is turned on.
 One-electron integrals computed using PRISM.
 NBasis=   521 RedAO= T EigKep=  2.60D-06  NBF=   521
 NBsUse=   518 1.00D-06 EigRej=  7.36D-07 NBFU=   518
 ExpMin= 3.60D-02 ExpMax= 8.59D+03 ExpMxC= 1.30D+03 IAcc=3 IRadAn=         5 AccDes= 0.00D+00
 Harris functional with IExCor=  402 and IRadAn=       5 diagonalized for initial guess.
 HarFok:  IExCor=  402 AccDes= 0.00D+00 IRadAn=         5 IDoV= 1 UseB2=F ITyADJ=14
 ICtDFT=  3500011 ScaDFX=  1.000000  1.000000  1.000000  1.000000
 FoFCou: FMM=F IPFlag=           0 FMFlag=      100000 FMFlg1=           0
         NFxFlg=           0 DoJE=T BraDBF=F KetDBF=T FulRan=T
         wScrn=  0.000000 ICntrl=     500 IOpCl=  0 I1Cent=   200000004 NGrid=           0
         NMat0=    1 NMatS0=      1 NMatT0=    0 NMatD0=    1 NMtDS0=    0 NMtDT0=    0
 Petite list used in FoFCou.
 Requested convergence on RMS density matrix=1.00D-08 within 128 cycles.
 Requested convergence on MAX density matrix=1.00D-06.
 Requested convergence on             energy=1.00D-06.
 No special actions if energy rises.
 SCF Done:  E(RB3LYP) =  -767.935057051     A.U. after   14 cycles
            NFock= 14  Conv=0.63D-08     -V/T= 2.0033

 **********************************************************************

            Population analysis using the SCF density.

 **********************************************************************

 Orbital symmetries:
       Occupied  (A) (A) (A) (A) (A) (A) (A) (A) (A) (A) (A) (A)
                 (A) (A) (A) (A) (A) (A) (A) (A) (A) (A) (A) (A)
                 (A) (A) (A) (A) (A) (A) (A) (A) (A) (A) (A) (A)
                 (A) (A) (A) (A) (A) (A) (A) (A) (A) (A) (A) (A)
                 (A) (A) (A) (A) (A) (A) (A) (A) (A) (A) (A) (A)
                 (A) (A) (A) (A)
       Virtual   (A) (A) (A) (A) (A) (A) (A) (A) (A) (A) (A) (A)
                 (A) (A) (A) (A) (A) (A) (A) (A) (A) (A) (A) (A)
                 (A) (A) (A) (A) (A) (A) (A) (A) (A) (A) (A) (A)
                 (A) (A) (A) (A) (A) (A) (A) (A) (A) (A) (A) (A)
                 (A) (A) (A) (A) (A) (A) (A) (A) (A) (A) (A) (A)
                 (A) (A) (A) (A) (A) (A) (A) (A) (A) (A) (A) (A)
                 (A) (A) (A) (A) (A) (A) (A) (A) (A) (A) (A) (A)
                 (A) (A) (A) (A) (A) (A) (A) (A) (A) (A) (A) (A)
                 (A) (A) (A) (A) (A) (A) (A) (A) (A) (A) (A) (A)
                 (A) (A) (A) (A) (A) (A) (A) (A) (A) (A) (A) (A)
                 (A) (A) (A) (A) (A) (A) (A) (A) (A) (A) (A) (A)
                 (A) (A) (A) (A) (A) (A) (A) (A) (A) (A) (A) (A)
                 (A) (A) (A) (A) (A) (A) (A) (A) (A) (A) (A) (A)
                 (A) (A) (A) (A) (A) (A) (A) (A) (A) (A) (A) (A)
                 (A) (A) (A) (A) (A) (A) (A) (A) (A) (A) (A) (A)
                 (A) (A) (A) (A) (A) (A) (A) (A) (A) (A) (A) (A)
                 (A) (A) (A) (A) (A) (A) (A) (A) (A) (A) (A) (A)
                 (A) (A) (A) (A) (A) (A) (A) (A) (A) (A) (A) (A)
                 (A) (A) (A) (A) (A) (A) (A) (A) (A) (A) (A) (A)
                 (A) (A) (A) (A) (A) (A) (A) (A) (A) (A) (A) (A)
                 (A) (A) (A) (A) (A) (A) (A) (A) (A) (A) (A) (A)
                 (A) (A) (A) (A) (A) (A) (A) (A) (A) (A) (A) (A)
                 (A) (A) (A) (A) (A) (A) (A) (A) (A) (A) (A) (A)
                 (A) (A) (A) (A) (A) (A) (A) (A) (A) (A) (A) (A)
                 (A) (A) (A) (A) (A) (A) (A) (A) (A) (A) (A) (A)
                 (A) (A) (A) (A) (A) (A) (A) (A) (A) (A) (A) (A)
                 (A) (A) (A) (A) (A) (A) (A) (A) (A) (A) (A) (A)
                 (A) (A) (A) (A) (A) (A) (A) (A) (A) (A) (A) (A)
                 (A) (A) (A) (A) (A) (A) (A) (A) (A) (A) (A) (A)
                 (A) (A) (A) (A) (A) (A) (A) (A) (A) (A) (A) (A)
                 (A) (A) (A) (A) (A) (A) (A) (A) (A) (A) (A) (A)
                 (A) (A) (A) (A) (A) (A) (A) (A) (A) (A) (A) (A)
                 (A) (A) (A) (A) (A) (A) (A) (A) (A) (A) (A) (A)
                 (A) (A) (A) (A) (A) (A) (A) (A) (A) (A) (A) (A)
                 (A) (A) (A) (A) (A) (A) (A) (A) (A) (A) (A) (A)
                 (A) (A) (A) (A) (A) (A) (A) (A) (A) (A) (A) (A)
                 (A) (A) (A) (A) (A) (A) (A) (A) (A) (A) (A) (A)
                 (A) (A) (A) (A) (A) (A) (A) (A) (A) (A)
 The electronic state is 1-A.
 Alpha  occ. eigenvalues --  -19.26956 -19.18250 -14.60312 -14.42187 -10.39390
 Alpha  occ. eigenvalues --  -10.39108 -10.38803 -10.37930 -10.37382 -10.32964
 Alpha  occ. eigenvalues --  -10.32658 -10.29120 -10.25675 -10.25426 -10.24356
 Alpha  occ. eigenvalues --  -10.24186 -10.24180  -1.20807  -1.17148  -1.10701
 Alpha  occ. eigenvalues --   -1.05551  -0.96339  -0.94562  -0.93999  -0.88837
 Alpha  occ. eigenvalues --   -0.85546  -0.84907  -0.80971  -0.80382  -0.78830
 Alpha  occ. eigenvalues --   -0.73276  -0.72417  -0.69800  -0.68968  -0.66380
 Alpha  occ. eigenvalues --   -0.66178  -0.63986  -0.63462  -0.62417  -0.61191
 Alpha  occ. eigenvalues --   -0.60468  -0.59022  -0.57733  -0.55900  -0.55115
 Alpha  occ. eigenvalues --   -0.54493  -0.54162  -0.53572  -0.53102  -0.52525
 Alpha  occ. eigenvalues --   -0.52132  -0.51566  -0.51400  -0.51095  -0.50700
 Alpha  occ. eigenvalues --   -0.49429  -0.47634  -0.46452  -0.42927  -0.42210
 Alpha  occ. eigenvalues --   -0.40402  -0.36335  -0.35052  -0.29928
 Alpha virt. eigenvalues --   -0.14841  -0.12689  -0.12331  -0.11853  -0.10729
 Alpha virt. eigenvalues --   -0.10026  -0.09534  -0.09036  -0.08761  -0.08244
 Alpha virt. eigenvalues --   -0.08083  -0.07825  -0.07155  -0.06193  -0.05805
 Alpha virt. eigenvalues --   -0.05519  -0.05076  -0.04830  -0.04699  -0.03713
 Alpha virt. eigenvalues --   -0.03367  -0.03086  -0.02956  -0.02575  -0.02037
 Alpha virt. eigenvalues --   -0.01662  -0.01438  -0.01051  -0.00620  -0.00378
 Alpha virt. eigenvalues --    0.00160   0.00330   0.00599   0.00914   0.01092
 Alpha virt. eigenvalues --    0.01213   0.01708   0.01852   0.01910   0.02063
 Alpha virt. eigenvalues --    0.02326   0.02535   0.02936   0.03086   0.03477
 Alpha virt. eigenvalues --    0.03883   0.04170   0.04340   0.04547   0.04900
 Alpha virt. eigenvalues --    0.04960   0.05424   0.05507   0.05804   0.06102
 Alpha virt. eigenvalues --    0.06488   0.06808   0.06961   0.07163   0.07385
 Alpha virt. eigenvalues --    0.07739   0.07882   0.08280   0.08307   0.08827
 Alpha virt. eigenvalues --    0.09089   0.09365   0.09593   0.09785   0.09953
 Alpha virt. eigenvalues --    0.10312   0.10559   0.10976   0.11089   0.11372
 Alpha virt. eigenvalues --    0.12158   0.12494   0.12738   0.13317   0.13468
 Alpha virt. eigenvalues --    0.13843   0.14174   0.14621   0.15319   0.15537
 Alpha virt. eigenvalues --    0.15951   0.16017   0.16712   0.16882   0.17327
 Alpha virt. eigenvalues --    0.17800   0.18105   0.18783   0.18926   0.19197
 Alpha virt. eigenvalues --    0.19556   0.19948   0.20364   0.20675   0.21529
 Alpha virt. eigenvalues --    0.22200   0.22583   0.23104   0.23243   0.23633
 Alpha virt. eigenvalues --    0.23959   0.24599   0.24834   0.24982   0.25500
 Alpha virt. eigenvalues --    0.26609   0.27110   0.27619   0.28411   0.28821
 Alpha virt. eigenvalues --    0.30701   0.30875   0.31101   0.31525   0.31990
 Alpha virt. eigenvalues --    0.32306   0.34277   0.34900   0.36032   0.36301
 Alpha virt. eigenvalues --    0.36551   0.37200   0.38531   0.38899   0.39560
 Alpha virt. eigenvalues --    0.40314   0.41334   0.42046   0.42352   0.42835
 Alpha virt. eigenvalues --    0.43896   0.44521   0.46525   0.47232   0.47743
 Alpha virt. eigenvalues --    0.48351   0.48456   0.49040   0.49374   0.49576
 Alpha virt. eigenvalues --    0.50057   0.50764   0.51721   0.51978   0.52367
 Alpha virt. eigenvalues --    0.52483   0.52578   0.53033   0.53931   0.54526
 Alpha virt. eigenvalues --    0.54749   0.55020   0.55703   0.55740   0.56866
 Alpha virt. eigenvalues --    0.57283   0.57494   0.58345   0.58422   0.58981
 Alpha virt. eigenvalues --    0.59744   0.59855   0.61418   0.62482   0.62980
 Alpha virt. eigenvalues --    0.63184   0.63801   0.63972   0.64617   0.65970
 Alpha virt. eigenvalues --    0.66506   0.67737   0.68912   0.70192   0.70829
 Alpha virt. eigenvalues --    0.71777   0.72495   0.73516   0.74487   0.75320
 Alpha virt. eigenvalues --    0.76047   0.77804   0.78593   0.80560   0.81154
 Alpha virt. eigenvalues --    0.81410   0.82301   0.82865   0.83846   0.84301
 Alpha virt. eigenvalues --    0.85615   0.87459   0.88331   0.89837   0.90412
 Alpha virt. eigenvalues --    0.91326   0.92541   0.93605   0.93972   0.95108
 Alpha virt. eigenvalues --    0.98557   0.99340   0.99980   1.00508   1.01289
 Alpha virt. eigenvalues --    1.01725   1.02768   1.03807   1.05885   1.06673
 Alpha virt. eigenvalues --    1.07629   1.08786   1.10564   1.10856   1.12109
 Alpha virt. eigenvalues --    1.12648   1.13037   1.14636   1.15269   1.18472
 Alpha virt. eigenvalues --    1.20305   1.20637   1.24269   1.26229   1.26487
 Alpha virt. eigenvalues --    1.27421   1.30069   1.30352   1.30732   1.31073
 Alpha virt. eigenvalues --    1.34035   1.35653   1.37727   1.38918   1.39109
 Alpha virt. eigenvalues --    1.39927   1.40841   1.41949   1.42585   1.43341
 Alpha virt. eigenvalues --    1.44548   1.45122   1.45910   1.46764   1.47364
 Alpha virt. eigenvalues --    1.48069   1.48434   1.49127   1.49314   1.49949
 Alpha virt. eigenvalues --    1.50869   1.51054   1.51936   1.52266   1.52476
 Alpha virt. eigenvalues --    1.52633   1.53235   1.54731   1.54775   1.56887
 Alpha virt. eigenvalues --    1.58757   1.59698   1.59982   1.60564   1.61418
 Alpha virt. eigenvalues --    1.64059   1.64202   1.64666   1.65567   1.66939
 Alpha virt. eigenvalues --    1.68559   1.68583   1.68792   1.69388   1.73082
 Alpha virt. eigenvalues --    1.74707   1.76501   1.77297   1.79759   1.81043
 Alpha virt. eigenvalues --    1.82675   1.83534   1.85592   1.85945   1.86437
 Alpha virt. eigenvalues --    1.87424   1.88430   1.88732   1.89299   1.89795
 Alpha virt. eigenvalues --    1.90004   1.90545   1.93223   1.95419   1.96931
 Alpha virt. eigenvalues --    1.97390   1.98837   1.99797   2.00519   2.00620
 Alpha virt. eigenvalues --    2.01500   2.03851   2.05085   2.07233   2.08311
 Alpha virt. eigenvalues --    2.09368   2.10024   2.12188   2.13742   2.15005
 Alpha virt. eigenvalues --    2.17180   2.17856   2.18563   2.19594   2.21678
 Alpha virt. eigenvalues --    2.23015   2.23252   2.26717   2.28216   2.29199
 Alpha virt. eigenvalues --    2.31029   2.33407   2.36267   2.37123   2.37765
 Alpha virt. eigenvalues --    2.37984   2.38386   2.39506   2.40276   2.40631
 Alpha virt. eigenvalues --    2.41810   2.42890   2.44786   2.46251   2.46801
 Alpha virt. eigenvalues --    2.47086   2.48740   2.49878   2.51614   2.53380
 Alpha virt. eigenvalues --    2.54628   2.55398   2.56701   2.57484   2.59389
 Alpha virt. eigenvalues --    2.59881   2.60460   2.62288   2.63407   2.64239
 Alpha virt. eigenvalues --    2.65406   2.66885   2.67749   2.67915   2.70071
 Alpha virt. eigenvalues --    2.70640   2.72040   2.72532   2.73709   2.74005
 Alpha virt. eigenvalues --    2.75325   2.75611   2.76623   2.77881   2.79995
 Alpha virt. eigenvalues --    2.81569   2.82244   2.83773   2.84496   2.88083
 Alpha virt. eigenvalues --    2.89766   2.90310   2.93107   2.93454   2.95069
 Alpha virt. eigenvalues --    2.95311   2.99165   2.99807   3.00242   3.05539
 Alpha virt. eigenvalues --    3.05986   3.07885   3.11709   3.16396   3.16983
 Alpha virt. eigenvalues --    3.21343   3.26649   3.29483   3.30782   3.33461
 Alpha virt. eigenvalues --    3.37054   3.37829   3.38298   3.43376   3.44923
 Alpha virt. eigenvalues --    3.47697   3.48321   3.56091   3.57140   3.58508
 Alpha virt. eigenvalues --    3.59372   3.60117   3.61958   3.62681   3.63219
 Alpha virt. eigenvalues --    3.64419   3.68245   3.71367   3.73984   3.80454
 Alpha virt. eigenvalues --    3.88893   3.90876   3.94932   3.97778   3.99972
 Alpha virt. eigenvalues --    4.03167   4.05937   4.11550   4.14673   4.36177
 Alpha virt. eigenvalues --    4.47902   4.54187   4.56892   4.60484   4.85028
 Alpha virt. eigenvalues --    4.94410   4.95154   4.99268   5.20300   5.29671
 Alpha virt. eigenvalues --    5.65376   5.81636  23.53560  23.63867  23.65591
 Alpha virt. eigenvalues --   23.68767  23.72629  23.77659  23.81585  23.90831
 Alpha virt. eigenvalues --   23.98450  24.06093  24.20797  24.21338  24.33277
 Alpha virt. eigenvalues --   35.29330  35.65234  49.84385  49.98049
          Condensed to atoms (all electrons):
               1          2          3          4          5          6
     1  N    6.747076   0.030119  -0.122939  -0.117981  -0.071673   0.119954
     2  C    0.030119   7.861102   0.635408  -1.827434  -0.634131  -0.586183
     3  C   -0.122939   0.635408   8.423324   1.069017  -1.247237  -0.425141
     4  C   -0.117981  -1.827434   1.069017   9.422538   0.022625  -1.676514
     5  C   -0.071673  -0.634131  -1.247237   0.022625   8.077368   1.025489
     6  C    0.119954  -0.586183  -0.425141  -1.676514   1.025489   7.648612
     7  C    0.019950   0.517962  -1.571572  -0.116096  -1.319133  -0.036126
     8  C    0.018756  -0.351315  -0.786158  -0.335035   0.100943   0.394101
     9  O    0.000132   0.145113   0.081550   0.001747   0.009397  -0.014716
    10  O   -0.000149   0.091184   0.029791   0.039860   0.068112   0.024832
    11  C    0.001889  -0.049587  -0.030801  -0.123136  -0.092946  -0.543468
    12  C   -0.000112  -0.002833   0.066936   0.009368  -0.007878  -0.014386
    13  N    0.000000  -0.001602   0.000569   0.000208  -0.000393  -0.005257
    14  C    0.000001   0.016361   0.005136   0.000067  -0.001040  -0.014065
    15  C   -0.000001  -0.000995   0.000163   0.000209   0.000315   0.002541
    16  C    0.000000  -0.000592  -0.000083   0.000012  -0.000007   0.000192
    17  C   -0.000001  -0.007854  -0.002021  -0.000029   0.000822   0.006019
    18  H    0.364639  -0.018288   0.003247  -0.020283   0.000905   0.014605
    19  H    0.368769   0.019563   0.020892  -0.063085   0.006346  -0.013464
    20  H   -0.002230   0.394877  -0.145123  -0.022598   0.046200   0.028313
    21  H   -0.021680   0.124099   0.480235  -0.193067  -0.100324  -0.023867
    22  H   -0.020005   0.001978  -0.064354  -0.183855   0.552384  -0.001925
    23  H   -0.003140   0.021729   0.042918   0.067672  -0.096216   0.334115
    24  H   -0.000033  -0.001918  -0.007669   0.000903   0.007996   0.016790
    25  H   -0.000046  -0.011389  -0.012845  -0.001224   0.009996  -0.002272
    26  H   -0.000009  -0.006741  -0.002049   0.000560  -0.000597   0.001700
    27  H   -0.000004   0.000035  -0.003025  -0.001160  -0.001435  -0.008393
    28  H    0.000002   0.000284   0.001656  -0.000009  -0.000711  -0.003479
    29  H    0.000001   0.002959   0.001438   0.000165  -0.000470  -0.000876
    30  H    0.000000   0.000669   0.000192  -0.000013  -0.000022  -0.000819
    31  H    0.000000  -0.000135  -0.000142  -0.000016   0.000035   0.000227
    32  H    0.000000   0.000683   0.000431   0.000059  -0.000044  -0.000279
    33  H    0.000000  -0.000042  -0.000015  -0.000001   0.000001   0.000011
    34  H    0.000000   0.000022  -0.000026   0.000000   0.000009   0.000068
    35  H    0.000000  -0.000004   0.000003   0.000001  -0.000002   0.000032
    36  H    0.000000  -0.000093  -0.000019  -0.000008   0.000036   0.000110
    37  H    0.000000   0.000018  -0.000010   0.000003  -0.000033  -0.000103
    38  H    0.000000   0.000915   0.000211   0.000145  -0.000034  -0.000250
               7          8          9         10         11         12
     1  N    0.019950   0.018756   0.000132  -0.000149   0.001889  -0.000112
     2  C    0.517962  -0.351315   0.145113   0.091184  -0.049587  -0.002833
     3  C   -1.571572  -0.786158   0.081550   0.029791  -0.030801   0.066936
     4  C   -0.116096  -0.335035   0.001747   0.039860  -0.123136   0.009368
     5  C   -1.319133   0.100943   0.009397   0.068112  -0.092946  -0.007878
     6  C   -0.036126   0.394101  -0.014716   0.024832  -0.543468  -0.014386
     7  C    7.781700   0.327522  -0.288757  -0.251936   0.346638   0.062815
     8  C    0.327522   8.222523  -0.056819   0.325473  -1.588352  -0.209054
     9  O   -0.288757  -0.056819   8.628597  -0.236898   0.124264  -0.318945
    10  O   -0.251936   0.325473  -0.236898   8.141921   0.009688   0.083143
    11  C    0.346638  -1.588352   0.124264   0.009688   9.360901  -2.087832
    12  C    0.062815  -0.209054  -0.318945   0.083143  -2.087832   8.876617
    13  N    0.005294  -0.025213   0.031102  -0.000650   0.199028  -0.338250
    14  C    0.011646  -0.241095   0.002822  -0.005720  -0.238259   0.254751
    15  C   -0.001397   0.018739   0.013907   0.000183   0.053784  -0.374946
    16  C    0.000075   0.013821   0.002612   0.000016  -0.066764   0.100691
    17  C   -0.004459   0.070245  -0.001144   0.000861   0.205697  -0.181967
    18  H    0.005794  -0.004046  -0.000081   0.000011  -0.000116   0.000039
    19  H    0.004716   0.000984   0.000053   0.000069   0.000082  -0.000064
    20  H    0.025346  -0.020559   0.001096  -0.001457   0.011847   0.019885
    21  H    0.036974   0.000983   0.000878  -0.000944  -0.004417  -0.000580
    22  H   -0.012312   0.017861   0.001778   0.001102   0.004851  -0.000171
    23  H    0.024313  -0.046331  -0.008047  -0.003330  -0.011939   0.003607
    24  H   -0.020033   0.137075   0.006109  -0.033785   0.388672  -0.250575
    25  H    0.003688  -0.108696   0.004320  -0.035141   0.338871   0.012189
    26  H    0.002326   0.049797   0.001804   0.001936   0.002856   0.267776
    27  H    0.005915  -0.052809  -0.003842  -0.001408  -0.042631   0.429848
    28  H    0.003046  -0.011103  -0.011156   0.004888  -0.016446   0.035940
    29  H   -0.001505  -0.000499  -0.005941   0.003198  -0.003907   0.050907
    30  H    0.001187  -0.022390   0.000654  -0.000617  -0.067148   0.070504
    31  H    0.000064   0.000735   0.000540  -0.000057   0.021326  -0.047465
    32  H   -0.000141  -0.001967   0.000201   0.000056  -0.004029   0.036344
    33  H    0.000007   0.000310   0.000049  -0.000006   0.005280  -0.011932
    34  H   -0.000064   0.000811   0.000416  -0.000053   0.025359  -0.020921
    35  H   -0.000111   0.002297  -0.000314   0.000040   0.015210  -0.018379
    36  H   -0.000036   0.000893  -0.000146  -0.000174   0.006584  -0.005377
    37  H   -0.000037   0.001649   0.000155   0.000030  -0.020791   0.037980
    38  H   -0.001591  -0.013582  -0.001346   0.001171   0.031623  -0.056565
              13         14         15         16         17         18
     1  N    0.000000   0.000001  -0.000001   0.000000  -0.000001   0.364639
     2  C   -0.001602   0.016361  -0.000995  -0.000592  -0.007854  -0.018288
     3  C    0.000569   0.005136   0.000163  -0.000083  -0.002021   0.003247
     4  C    0.000208   0.000067   0.000209   0.000012  -0.000029  -0.020283
     5  C   -0.000393  -0.001040   0.000315  -0.000007   0.000822   0.000905
     6  C   -0.005257  -0.014065   0.002541   0.000192   0.006019   0.014605
     7  C    0.005294   0.011646  -0.001397   0.000075  -0.004459   0.005794
     8  C   -0.025213  -0.241095   0.018739   0.013821   0.070245  -0.004046
     9  O    0.031102   0.002822   0.013907   0.002612  -0.001144  -0.000081
    10  O   -0.000650  -0.005720   0.000183   0.000016   0.000861   0.000011
    11  C    0.199028  -0.238259   0.053784  -0.066764   0.205697  -0.000116
    12  C   -0.338250   0.254751  -0.374946   0.100691  -0.181967   0.000039
    13  N    6.902323  -0.182320   0.100051  -0.087684   0.084083   0.000001
    14  C   -0.182320   6.455857  -0.029873  -0.100104  -0.468273   0.000000
    15  C    0.100051  -0.029873   5.701847  -0.040779  -0.004853   0.000000
    16  C   -0.087684  -0.100104  -0.040779   5.589831   0.068957   0.000000
    17  C    0.084083  -0.468273  -0.004853   0.068957   5.761727   0.000000
    18  H    0.000001   0.000000   0.000000   0.000000   0.000000   0.398317
    19  H   -0.000002   0.000002   0.000000   0.000000   0.000000  -0.019586
    20  H   -0.003594   0.003644  -0.001145  -0.000155  -0.000856  -0.000709
    21  H    0.000081  -0.000089   0.000037   0.000004   0.000012   0.002169
    22  H    0.000011   0.000033   0.000002   0.000000   0.000002  -0.004275
    23  H   -0.000150  -0.000071  -0.000057  -0.000008  -0.000139   0.001543
    24  H    0.028472  -0.112928   0.012658   0.010337   0.046582  -0.000015
    25  H   -0.001928   0.044656  -0.001375   0.003740  -0.020647  -0.000017
    26  H    0.053670  -0.101851   0.012529   0.010625   0.030447   0.000004
    27  H   -0.018198   0.058112  -0.024938  -0.013665  -0.018916   0.000001
    28  H    0.336328  -0.058111  -0.005485   0.023315   0.024301   0.000001
    29  H   -0.050144   0.451554  -0.019988   0.002703  -0.058302   0.000000
    30  H   -0.111667   0.581315   0.051104  -0.041885  -0.170219   0.000000
    31  H    0.023941  -0.036850   0.397358  -0.019159   0.012862   0.000000
    32  H   -0.057255   0.028938   0.409230  -0.056497  -0.011609   0.000000
    33  H    0.013425   0.000304  -0.029108   0.398388   0.005505   0.000000
    34  H    0.025416  -0.056322  -0.053200   0.409517   0.021287   0.000000
    35  H   -0.007135  -0.003075  -0.005149   0.369574  -0.000319   0.000000
    36  H    0.008652  -0.049527   0.004010  -0.002127   0.422585   0.000000
    37  H    0.009604  -0.000156  -0.053736   0.036980   0.356790   0.000000
    38  H    0.018485   0.040059   0.023439  -0.021970   0.338327   0.000000
              19         20         21         22         23         24
     1  N    0.368769  -0.002230  -0.021680  -0.020005  -0.003140  -0.000033
     2  C    0.019563   0.394877   0.124099   0.001978   0.021729  -0.001918
     3  C    0.020892  -0.145123   0.480235  -0.064354   0.042918  -0.007669
     4  C   -0.063085  -0.022598  -0.193067  -0.183855   0.067672   0.000903
     5  C    0.006346   0.046200  -0.100324   0.552384  -0.096216   0.007996
     6  C   -0.013464   0.028313  -0.023867  -0.001925   0.334115   0.016790
     7  C    0.004716   0.025346   0.036974  -0.012312   0.024313  -0.020033
     8  C    0.000984  -0.020559   0.000983   0.017861  -0.046331   0.137075
     9  O    0.000053   0.001096   0.000878   0.001778  -0.008047   0.006109
    10  O    0.000069  -0.001457  -0.000944   0.001102  -0.003330  -0.033785
    11  C    0.000082   0.011847  -0.004417   0.004851  -0.011939   0.388672
    12  C   -0.000064   0.019885  -0.000580  -0.000171   0.003607  -0.250575
    13  N   -0.000002  -0.003594   0.000081   0.000011  -0.000150   0.028472
    14  C    0.000002   0.003644  -0.000089   0.000033  -0.000071  -0.112928
    15  C    0.000000  -0.001145   0.000037   0.000002  -0.000057   0.012658
    16  C    0.000000  -0.000155   0.000004   0.000000  -0.000008   0.010337
    17  C    0.000000  -0.000856   0.000012   0.000002  -0.000139   0.046582
    18  H   -0.019586  -0.000709   0.002169  -0.004275   0.001543  -0.000015
    19  H    0.399025   0.001202  -0.001047   0.003081  -0.000685   0.000023
    20  H    0.001202   0.548520  -0.022677   0.003191  -0.003318  -0.001361
    21  H   -0.001047  -0.022677   0.577812  -0.003848   0.002424   0.000085
    22  H    0.003081   0.003191  -0.003848   0.575787  -0.027333   0.000228
    23  H   -0.000685  -0.003318   0.002424  -0.027333   0.500146  -0.001528
    24  H    0.000023  -0.001361   0.000085   0.000228  -0.001528   0.621542
    25  H    0.000016   0.001324   0.000137   0.000395  -0.002707  -0.041501
    26  H   -0.000012  -0.005389   0.000261  -0.000048   0.000191   0.017201
    27  H   -0.000013  -0.001113   0.000276   0.000010  -0.000024  -0.024316
    28  H   -0.000001   0.000090  -0.000026  -0.000006   0.000176  -0.018962
    29  H    0.000000   0.000309  -0.000025  -0.000018   0.000198  -0.001894
    30  H    0.000000   0.000437  -0.000008   0.000003  -0.000027  -0.010138
    31  H    0.000000  -0.000002   0.000000   0.000000  -0.000007   0.001569
    32  H    0.000000   0.000193  -0.000015   0.000000   0.000005  -0.001557
    33  H    0.000000  -0.000027   0.000001   0.000000   0.000000   0.000684
    34  H    0.000000  -0.000004   0.000000   0.000000  -0.000005   0.002250
    35  H    0.000000  -0.000052   0.000001   0.000000   0.000004   0.000512
    36  H    0.000000   0.000020  -0.000001   0.000001  -0.000001   0.000771
    37  H    0.000000   0.000025   0.000000   0.000000  -0.000005   0.005860
    38  H    0.000000  -0.000219   0.000004  -0.000022   0.000144  -0.024258
              25         26         27         28         29         30
     1  N   -0.000046  -0.000009  -0.000004   0.000002   0.000001   0.000000
     2  C   -0.011389  -0.006741   0.000035   0.000284   0.002959   0.000669
     3  C   -0.012845  -0.002049  -0.003025   0.001656   0.001438   0.000192
     4  C   -0.001224   0.000560  -0.001160  -0.000009   0.000165  -0.000013
     5  C    0.009996  -0.000597  -0.001435  -0.000711  -0.000470  -0.000022
     6  C   -0.002272   0.001700  -0.008393  -0.003479  -0.000876  -0.000819
     7  C    0.003688   0.002326   0.005915   0.003046  -0.001505   0.001187
     8  C   -0.108696   0.049797  -0.052809  -0.011103  -0.000499  -0.022390
     9  O    0.004320   0.001804  -0.003842  -0.011156  -0.005941   0.000654
    10  O   -0.035141   0.001936  -0.001408   0.004888   0.003198  -0.000617
    11  C    0.338871   0.002856  -0.042631  -0.016446  -0.003907  -0.067148
    12  C    0.012189   0.267776   0.429848   0.035940   0.050907   0.070504
    13  N   -0.001928   0.053670  -0.018198   0.336328  -0.050144  -0.111667
    14  C    0.044656  -0.101851   0.058112  -0.058111   0.451554   0.581315
    15  C   -0.001375   0.012529  -0.024938  -0.005485  -0.019988   0.051104
    16  C    0.003740   0.010625  -0.013665   0.023315   0.002703  -0.041885
    17  C   -0.020647   0.030447  -0.018916   0.024301  -0.058302  -0.170219
    18  H   -0.000017   0.000004   0.000001   0.000001   0.000000   0.000000
    19  H    0.000016  -0.000012  -0.000013  -0.000001   0.000000   0.000000
    20  H    0.001324  -0.005389  -0.001113   0.000090   0.000309   0.000437
    21  H    0.000137   0.000261   0.000276  -0.000026  -0.000025  -0.000008
    22  H    0.000395  -0.000048   0.000010  -0.000006  -0.000018   0.000003
    23  H   -0.002707   0.000191  -0.000024   0.000176   0.000198  -0.000027
    24  H   -0.041501   0.017201  -0.024316  -0.018962  -0.001894  -0.010138
    25  H    0.614301  -0.021152   0.007559  -0.012860  -0.029239   0.014805
    26  H   -0.021152   0.482277  -0.042175   0.009120  -0.008517  -0.018638
    27  H    0.007559  -0.042175   0.525602  -0.018111   0.000817   0.006526
    28  H   -0.012860   0.009120  -0.018111   0.442306  -0.000680  -0.006801
    29  H   -0.029239  -0.008517   0.000817  -0.000680   0.485994  -0.031565
    30  H    0.014805  -0.018638   0.006526  -0.006801  -0.031565   0.567616
    31  H    0.002671  -0.000970   0.001465   0.000875  -0.004049  -0.007419
    32  H   -0.001659  -0.001796   0.013773  -0.022183   0.002550   0.001957
    33  H    0.000375   0.001560  -0.000592   0.001437  -0.001235  -0.004732
    34  H    0.002343  -0.000061  -0.000768   0.001856  -0.004091   0.003088
    35  H   -0.002836   0.001648   0.000941  -0.008155   0.008223  -0.022241
    36  H   -0.002114  -0.000314  -0.000059   0.001061  -0.003509  -0.004962
    37  H   -0.000803   0.000222  -0.000767  -0.014787   0.008543  -0.009026
    38  H   -0.008779  -0.002020   0.004020  -0.004462  -0.003933   0.014445
              31         32         33         34         35         36
     1  N    0.000000   0.000000   0.000000   0.000000   0.000000   0.000000
     2  C   -0.000135   0.000683  -0.000042   0.000022  -0.000004  -0.000093
     3  C   -0.000142   0.000431  -0.000015  -0.000026   0.000003  -0.000019
     4  C   -0.000016   0.000059  -0.000001   0.000000   0.000001  -0.000008
     5  C    0.000035  -0.000044   0.000001   0.000009  -0.000002   0.000036
     6  C    0.000227  -0.000279   0.000011   0.000068   0.000032   0.000110
     7  C    0.000064  -0.000141   0.000007  -0.000064  -0.000111  -0.000036
     8  C    0.000735  -0.001967   0.000310   0.000811   0.002297   0.000893
     9  O    0.000540   0.000201   0.000049   0.000416  -0.000314  -0.000146
    10  O   -0.000057   0.000056  -0.000006  -0.000053   0.000040  -0.000174
    11  C    0.021326  -0.004029   0.005280   0.025359   0.015210   0.006584
    12  C   -0.047465   0.036344  -0.011932  -0.020921  -0.018379  -0.005377
    13  N    0.023941  -0.057255   0.013425   0.025416  -0.007135   0.008652
    14  C   -0.036850   0.028938   0.000304  -0.056322  -0.003075  -0.049527
    15  C    0.397358   0.409230  -0.029108  -0.053200  -0.005149   0.004010
    16  C   -0.019159  -0.056497   0.398388   0.409517   0.369574  -0.002127
    17  C    0.012862  -0.011609   0.005505   0.021287  -0.000319   0.422585
    18  H    0.000000   0.000000   0.000000   0.000000   0.000000   0.000000
    19  H    0.000000   0.000000   0.000000   0.000000   0.000000   0.000000
    20  H   -0.000002   0.000193  -0.000027  -0.000004  -0.000052   0.000020
    21  H    0.000000  -0.000015   0.000001   0.000000   0.000001  -0.000001
    22  H    0.000000   0.000000   0.000000   0.000000   0.000000   0.000001
    23  H   -0.000007   0.000005   0.000000  -0.000005   0.000004  -0.000001
    24  H    0.001569  -0.001557   0.000684   0.002250   0.000512   0.000771
    25  H    0.002671  -0.001659   0.000375   0.002343  -0.002836  -0.002114
    26  H   -0.000970  -0.001796   0.001560  -0.000061   0.001648  -0.000314
    27  H    0.001465   0.013773  -0.000592  -0.000768   0.000941  -0.000059
    28  H    0.000875  -0.022183   0.001437   0.001856  -0.008155   0.001061
    29  H   -0.004049   0.002550  -0.001235  -0.004091   0.008223  -0.003509
    30  H   -0.007419   0.001957  -0.004732   0.003088  -0.022241  -0.004962
    31  H    0.450361  -0.034939   0.000247   0.009394  -0.012907  -0.000146
    32  H   -0.034939   0.526510  -0.008569  -0.014139   0.009837   0.000111
    33  H    0.000247  -0.008569   0.465274  -0.018797  -0.022196  -0.000008
    34  H    0.009394  -0.014139  -0.018797   0.554421  -0.053025   0.000284
    35  H   -0.012907   0.009837  -0.022196  -0.053025   0.571821  -0.000242
    36  H   -0.000146   0.000111  -0.000008   0.000284  -0.000242   0.466944
    37  H   -0.000325   0.002794   0.000088  -0.009634  -0.002135  -0.020609
    38  H   -0.000178  -0.000194  -0.000546   0.002645   0.000644  -0.017692
              37         38
     1  N    0.000000   0.000000
     2  C    0.000018   0.000915
     3  C   -0.000010   0.000211
     4  C    0.000003   0.000145
     5  C   -0.000033  -0.000034
     6  C   -0.000103  -0.000250
     7  C   -0.000037  -0.001591
     8  C    0.001649  -0.013582
     9  O    0.000155  -0.001346
    10  O    0.000030   0.001171
    11  C   -0.020791   0.031623
    12  C    0.037980  -0.056565
    13  N    0.009604   0.018485
    14  C   -0.000156   0.040059
    15  C   -0.053736   0.023439
    16  C    0.036980  -0.021970
    17  C    0.356790   0.338327
    18  H    0.000000   0.000000
    19  H    0.000000   0.000000
    20  H    0.000025  -0.000219
    21  H    0.000000   0.000004
    22  H    0.000000  -0.000022
    23  H   -0.000005   0.000144
    24  H    0.005860  -0.024258
    25  H   -0.000803  -0.008779
    26  H    0.000222  -0.002020
    27  H   -0.000767   0.004020
    28  H   -0.014787  -0.004462
    29  H    0.008543  -0.003933
    30  H   -0.009026   0.014445
    31  H   -0.000325  -0.000178
    32  H    0.002794  -0.000194
    33  H    0.000088  -0.000546
    34  H   -0.009634   0.002645
    35  H   -0.002135   0.000644
    36  H   -0.020609  -0.017692
    37  H    0.546073  -0.055344
    38  H   -0.055344   0.521145
 Mulliken charges:
               1
     1  N   -0.311285
     2  C   -0.363942
     3  C   -0.441890
     4  C    0.046385
     5  C   -0.354650
     6  C   -0.246126
     7  C    0.438327
     8  C    0.169505
     9  O   -0.111141
    10  O   -0.255242
    11  C   -0.161883
    12  C   -0.471109
    13  N    0.050699
    14  C   -0.255533
    15  C   -0.155079
    16  C   -0.589909
    17  C   -0.505502
    18  H    0.276138
    19  H    0.273136
    20  H    0.146071
    21  H    0.146140
    22  H    0.155473
    23  H    0.205884
    24  H    0.246154
    25  H    0.257843
    26  H    0.263828
    27  H    0.223462
    28  H    0.326853
    29  H    0.210827
    30  H    0.215838
    31  H    0.241096
    32  H    0.183197
    33  H    0.204863
    34  H    0.171923
    35  H    0.177493
    36  H    0.195103
    37  H    0.181489
    38  H    0.215565
 Sum of Mulliken charges =   1.00000
 Mulliken charges with hydrogens summed into heavy atoms:
               1
     1  N    0.237989
     2  C   -0.217871
     3  C   -0.295750
     4  C    0.046385
     5  C   -0.199177
     6  C   -0.040242
     7  C    0.438327
     8  C    0.169505
     9  O   -0.111141
    10  O   -0.255242
    11  C    0.342114
    12  C    0.016181
    13  N    0.377552
    14  C    0.171132
    15  C    0.269214
    16  C   -0.035631
    17  C    0.086655
 Electronic spatial extent (au):  <R**2>=           7713.9444
 Charge=              1.0000 electrons
 Dipole moment (field-independent basis, Debye):
    X=             10.8991    Y=             -4.1382    Z=              0.9309  Tot=             11.6954
 Quadrupole moment (field-independent basis, Debye-Ang):
   XX=             31.0214   YY=            -92.1358   ZZ=            -99.5497
   XY=              0.5438   XZ=             -1.1594   YZ=              1.4659
 Traceless Quadrupole moment (field-independent basis, Debye-Ang):
   XX=             84.5761   YY=            -38.5811   ZZ=            -45.9950
   XY=              0.5438   XZ=             -1.1594   YZ=              1.4659
 Octapole moment (field-independent basis, Debye-Ang**2):
  XXX=             10.7674  YYY=            -25.2333  ZZZ=              1.4066  XYY=             16.2823
  XXY=            -66.7272  XXZ=             10.7249  XZZ=             42.4948  YZZ=              1.4020
  YYZ=              6.5736  XYZ=             16.3126
 Hexadecapole moment (field-independent basis, Debye-Ang**3):
 XXXX=          -4695.7368 YYYY=           -874.1591 ZZZZ=           -225.0775 XXXY=             12.4664
 XXXZ=            -90.5132 YYYX=             38.5058 YYYZ=              7.3347 ZZZX=             11.9686
 ZZZY=              3.4425 XXYY=          -1300.3518 XXZZ=          -1561.5461 YYZZ=           -190.2328
 XXYZ=             -2.2438 YYXZ=             -6.1881 ZZXY=             -1.3342
 N-N= 1.191860954289D+03 E-N=-4.156330577275D+03  KE= 7.653810987165D+02

 **********************************************************************

            Electrostatic Properties Using The SCF Density

 **********************************************************************

       Atomic Center    1 is at  -6.205300 -0.847060  0.192371
       Atomic Center    2 is at  -2.724435 -0.970366  0.095785
       Atomic Center    3 is at  -4.003030 -1.367289  0.199300
       Atomic Center    4 is at  -4.998027 -0.473397  0.094787
       Atomic Center    5 is at  -4.702535  0.818507 -0.113922
       Atomic Center    6 is at  -3.422680  1.212245 -0.217129
       Atomic Center    7 is at  -2.415077  0.323728 -0.113527
       Atomic Center    8 is at  -1.106270  0.704734 -0.216136
       Atomic Center    9 is at  -0.081606 -0.214903 -0.104177
       Atomic Center   10 is at  -0.790218  1.864458 -0.401159
       Atomic Center   11 is at   1.244034  0.264057 -0.144256
       Atomic Center   12 is at   2.219044 -0.886888  0.110125
       Atomic Center   13 is at   3.650210 -0.386200 -0.028017
       Atomic Center   14 is at   4.026656  0.648489  1.019321
       Atomic Center   15 is at   4.622400 -1.550505 -0.082040
       Atomic Center   16 is at   5.978906 -1.042752 -0.590574
       Atomic Center   17 is at   4.212453  1.978650  0.279976
       Atomic Center   18 is at  -6.982117 -0.146302  0.110265
       Atomic Center   19 is at  -6.433685 -1.858217  0.355528
       Atomic Center   20 is at  -1.943742 -1.744008  0.188430
       Atomic Center   21 is at  -4.226823 -2.434333  0.370743
       Atomic Center   22 is at  -5.508554  1.567271 -0.202531
       Atomic Center   23 is at  -3.239091  2.285929 -0.388843
       Atomic Center   24 is at   1.443352  0.700150 -1.151636
       Atomic Center   25 is at   1.360163  1.043751  0.642515
       Atomic Center   26 is at   2.058882 -1.341015  1.115353
       Atomic Center   27 is at   2.023100 -1.673472 -0.656589
       Atomic Center   28 is at   3.707965  0.087357 -0.960304
       Atomic Center   29 is at   3.254331  0.733179  1.815906
       Atomic Center   30 is at   4.966947  0.380109  1.550456
       Atomic Center   31 is at   4.711546 -2.041340  0.914381
       Atomic Center   32 is at   4.253784 -2.312050 -0.809781
       Atomic Center   33 is at   6.671805 -1.897294 -0.769228
       Atomic Center   34 is at   5.865035 -0.497844 -1.555842
       Atomic Center   35 is at   6.491009 -0.365242  0.127043
       Atomic Center   36 is at   4.495285  2.788918  0.990657
       Atomic Center   37 is at   5.019534  1.904891 -0.484306
       Atomic Center   38 is at   3.282870  2.300666 -0.240250
 -----------------------------------------------------------------

              Electrostatic Properties (Atomic Units)

 -----------------------------------------------------------------
    Center     Electric         -------- Electric Field --------
               Potential          X             Y             Z
 -----------------------------------------------------------------
    1 Atom    -18.286688     -0.025540     -0.007771      0.002053
    2 Atom    -14.698000      0.004450     -0.011191      0.001620
    3 Atom    -14.711611      0.004790     -0.013211      0.001869
    4 Atom    -14.665940      0.012780      0.003730     -0.001009
    5 Atom    -14.711640     -0.003183      0.013673     -0.002004
    6 Atom    -14.700360     -0.002152      0.014581     -0.002231
    7 Atom    -14.710847     -0.002114     -0.004457      0.000732
    8 Atom    -14.574222     -0.001197      0.008414     -0.000917
    9 Atom    -22.224223     -0.010406     -0.043526      0.004863
   10 Atom    -22.316483      0.011014      0.050642     -0.008121
   11 Atom    -14.570071      0.009068      0.010510     -0.000433
   12 Atom    -14.558292     -0.014175     -0.004441      0.000639
   13 Atom    -18.108520     -0.000690     -0.003666      0.003549
   14 Atom    -14.554014      0.003726      0.012277      0.007640
   15 Atom    -14.551542      0.010521     -0.009066     -0.002119
   16 Atom    -14.615141      0.003568     -0.000564     -0.000485
   17 Atom    -14.618422      0.000640      0.004225      0.000286
   18 Atom     -0.924634      0.005676     -0.014478      0.002026
   19 Atom     -0.924271     -0.003731      0.015216     -0.002236
   20 Atom     -1.022260      0.006520     -0.001076     -0.000082
   21 Atom     -1.021417     -0.002572     -0.006171      0.001022
   22 Atom     -1.022827     -0.004959      0.003993     -0.000443
   23 Atom     -1.032146      0.007171      0.004293     -0.000936
[...]
       Atomic Center    4 is at  -5.035579 -0.580839  0.071234
       Atomic Center    5 is at  -4.771687  0.778277 -0.208490
       Atomic Center    6 is at  -3.474087  1.238146 -0.284291
       Atomic Center    7 is at  -2.384869  0.369205 -0.087852
       Atomic Center    8 is at  -1.038803  0.922638 -0.182452
       Atomic Center    9 is at  -0.040719 -0.035198  0.005248
       Atomic Center   10 is at  -0.731058  2.072155 -0.399018
       Atomic Center   11 is at   1.275549  0.488214 -0.070111
       Atomic Center   12 is at   2.180313 -0.722379  0.122115
       Atomic Center   13 is at   3.647537 -0.395714 -0.069300
       Atomic Center   14 is at   4.171622  0.643810  0.930810
       Atomic Center   15 is at   4.486741 -1.667683 -0.075975
       Atomic Center   16 is at   5.859322 -1.458933 -0.695500
       Atomic Center   17 is at   4.305477  2.029152  0.316510
       Atomic Center   18 is at  -7.099623 -0.424286  0.006391
       Atomic Center   19 is at  -6.515301 -2.005248  0.345316
       Atomic Center   20 is at  -1.824166 -1.669546  0.347055
       Atomic Center   21 is at  -4.128357 -2.499253  0.486963
       Atomic Center   22 is at  -5.599051  1.461940 -0.363862
       Atomic Center   23 is at  -3.278344  2.281616 -0.498556
       Atomic Center   24 is at   1.443541  0.961531 -1.044786
       Atomic Center   25 is at   1.423289  1.250243  0.699156
       Atomic Center   26 is at   2.074841 -1.147772  1.120880
       Atomic Center   27 is at   1.924661 -1.486545 -0.612324
       Atomic Center   28 is at   3.741349  0.018910 -1.000889
       Atomic Center   29 is at   3.484754  0.631879  1.776696
       Atomic Center   30 is at   5.136963  0.282708  1.280106
       Atomic Center   31 is at   4.543303 -1.999839  0.961704
       Atomic Center   32 is at   3.917503 -2.407028 -0.639784
       Atomic Center   33 is at   6.390951 -2.412400 -0.688210
       Atomic Center   34 is at   5.785707 -1.135855 -1.737720
       Atomic Center   35 is at   6.471865 -0.741720 -0.146552
       Atomic Center   36 is at   4.693477  2.712276  1.074840
       Atomic Center   37 is at   5.014189  2.031529 -0.516395
       Atomic Center   38 is at   3.351609  2.431402 -0.028659
 -----------------------------------------------------------------

              Electrostatic Properties (Atomic Units)

 -----------------------------------------------------------------
    Center     Electric         -------- Electric Field --------
               Potential          X             Y             Z
 -----------------------------------------------------------------
    1 Atom    -18.289789     -0.002110     -0.000649      0.000192
    2 Atom    -14.681088      0.000194     -0.000212      0.000032
    3 Atom    -14.691724      0.000458     -0.000844      0.000182
    4 Atom    -14.633605      0.008291      0.003105     -0.000528
    5 Atom    -14.693986     -0.000225      0.001423     -0.000294
    6 Atom    -14.686303      0.000232      0.001433     -0.000264
    7 Atom    -14.682919     -0.002936     -0.000618      0.000083
    8 Atom    -14.556253     -0.013929     -0.003352      0.000582
    9 Atom    -22.221989     -0.011282     -0.039866      0.006995
   10 Atom    -22.295926      0.010063      0.050033     -0.009423
   11 Atom    -14.574572      0.008549      0.006290     -0.000801
   12 Atom    -14.564259     -0.010878     -0.000713      0.001068
   13 Atom    -18.115919      0.000661     -0.001678      0.005204
   14 Atom    -14.559515      0.003312      0.008709      0.005311
   15 Atom    -14.557745      0.007143     -0.007594     -0.000916
   16 Atom    -14.620862      0.001425     -0.000459     -0.000636
   17 Atom    -14.624338      0.000250      0.001780     -0.000153
   18 Atom     -0.937363     -0.018094      0.014056     -0.003223
   19 Atom     -0.936980     -0.004711     -0.022192      0.004541
   20 Atom     -1.019527      0.014614     -0.012366      0.002799
   21 Atom     -1.019890     -0.003012     -0.018403      0.003811
   22 Atom     -1.023228     -0.014408      0.012242     -0.002766
   23 Atom     -1.027750      0.003423      0.018808     -0.003845
   24 Atom     -0.972776      0.002151      0.008041     -0.016197
   25 Atom     -0.975083      0.001862      0.013135      0.013110
   26 Atom     -0.938234     -0.002199     -0.007648      0.017276
   27 Atom     -0.939254     -0.004784     -0.013346     -0.012509
   28 Atom     -0.816680      0.001831      0.008326     -0.019251
   29 Atom     -0.937415     -0.011705      0.000018      0.014935
   30 Atom     -0.938544      0.016811     -0.005923      0.006509
   31 Atom     -0.935381      0.001074     -0.006096      0.017860
   32 Atom     -0.936716     -0.009455     -0.013044     -0.009635
   33 Atom     -0.960824      0.009175     -0.015866     -0.000021
   34 Atom     -0.961985     -0.000741      0.005087     -0.017286
   35 Atom     -0.962944      0.010709      0.011840      0.009010
   36 Atom     -0.964099      0.006459      0.011679      0.012509
   37 Atom     -0.965056      0.011831      0.000427     -0.013644
   38 Atom     -0.967453     -0.016011      0.007127     -0.005820
 -----------------------------------------------------------------
 -----------------------------------------------------
    Center         ---- Electric Field Gradient ----
                     XX            YY            ZZ
 -----------------------------------------------------
    1 Atom     -812.037120   -811.891169   -810.494908
    2 Atom     -500.781018   -500.843224   -501.334130
    3 Atom     -500.609333   -500.674151   -500.885956
    4 Atom     -500.870776   -500.628956   -501.232272
    5 Atom     -500.601714   -500.701956   -500.913458
    6 Atom     -500.827141   -500.857958   -501.403604
    7 Atom     -500.604114   -500.475837   -500.663511
    8 Atom     -501.166791   -501.184069   -501.648024
    9 Atom    -1238.947888  -1236.739001  -1235.721685
   10 Atom    -1236.500169  -1238.421257  -1238.605331
   11 Atom     -500.720272   -500.299264   -500.114266
   12 Atom     -501.040871   -500.466377   -500.384026
   13 Atom     -812.862376   -812.838716   -812.834929
   14 Atom     -500.351593   -500.614079   -500.642626
   15 Atom     -500.521982   -500.841460   -500.309683
   16 Atom     -500.318800   -500.155972   -500.209035
   17 Atom     -500.167154   -500.337937   -500.208945
   18 Atom       -1.975679     -1.840468     -1.553436
   19 Atom       -1.646371     -2.163072     -1.565889
   20 Atom       -1.961284     -1.883132     -1.686194
   21 Atom       -1.707958     -2.118595     -1.679445
   22 Atom       -1.960707     -1.869512     -1.668923
   23 Atom       -1.691130     -2.106963     -1.682139
   24 Atom       -1.725923     -1.768118     -2.037696
   25 Atom       -1.731086     -1.909704     -1.923374
   26 Atom       -1.704434     -1.747576     -2.057838
   27 Atom       -1.726180     -1.903069     -1.891728
   28 Atom       -1.626306     -1.705775     -2.047270
   29 Atom       -1.879182     -1.701585     -1.961220
   30 Atom       -2.054577     -1.766620     -1.747954
   31 Atom       -1.694045     -1.738898     -2.093062
   32 Atom       -1.829720     -1.902393     -1.811626
   33 Atom       -1.762481     -2.000013     -1.651578
   34 Atom       -1.683052     -1.707281     -2.075733
   35 Atom       -1.817920     -1.872940     -1.796184
   36 Atom       -1.706758     -1.831174     -1.875907
   37 Atom       -1.856707     -1.680838     -1.931297
   38 Atom       -2.022508     -1.735565     -1.714877
 -----------------------------------------------------
 -----------------------------------------------------
    Center         ---- Electric Field Gradient ----
                     XY            XZ            YZ
 -----------------------------------------------------
    1 Atom       -0.041169     -0.016756      0.303820
    2 Atom        0.016438      0.004852     -0.107879
    3 Atom        0.035845     -0.003309     -0.045920
    4 Atom       -0.106426      0.028276     -0.133382
    5 Atom        0.018562      0.001117     -0.045792
    6 Atom        0.025926      0.004185     -0.118753
    7 Atom       -0.064687      0.014368     -0.041490
    8 Atom        0.285297     -0.050484     -0.088928
    9 Atom        0.157444     -0.079079      0.193014
   10 Atom       -0.526101      0.113299     -0.039393
   11 Atom       -0.096905      0.009970      0.041095
   12 Atom       -0.163743      0.088613      0.035822
   13 Atom       -0.002823     -0.012235     -0.021433
   14 Atom       -0.170069     -0.176568     -0.311249
   15 Atom        0.313740      0.015668      0.015075
   16 Atom       -0.028709      0.076639      0.014167
   17 Atom       -0.019713      0.021945      0.084637
   18 Atom        0.278928     -0.065463      0.067757
   19 Atom       -0.109391      0.021038      0.127784
   20 Atom        0.226771     -0.051940      0.046933
   21 Atom       -0.077542      0.015570      0.095221
   22 Atom        0.219636     -0.050484      0.047463
   23 Atom       -0.075394      0.015405      0.091276
   24 Atom       -0.033507      0.064050      0.162407
   25 Atom       -0.048677     -0.044440     -0.216025
   26 Atom       -0.016337      0.032904      0.157860
   27 Atom       -0.066889     -0.060943     -0.212236
   28 Atom       -0.019188      0.043305      0.188207
   29 Atom       -0.014382      0.214882     -0.003544
   30 Atom        0.134062     -0.127396      0.035197
   31 Atom        0.017452     -0.018239      0.122098
   32 Atom       -0.145721     -0.124630     -0.155402
   33 Atom        0.188013      0.002038      0.005836
   34 Atom        0.012428     -0.033166      0.129081
   35 Atom       -0.165149     -0.122020     -0.156570
   36 Atom       -0.100351     -0.113000     -0.190985
   37 Atom        0.003476      0.223307     -0.003801
   38 Atom        0.137199     -0.125164      0.053614
 -----------------------------------------------------
 -----------------------------------------------------
    Center         ---- Electric Field Gradient ----
                   ----       Eigenvalues       ----
 -----------------------------------------------------
    1 Atom     -812.051515   -811.940402   -810.431280
    2 Atom     -501.356906   -500.825651   -500.775815
    3 Atom     -500.895542   -500.682172   -500.591727
    4 Atom     -501.260531   -500.909819   -500.561654
    5 Atom     -500.923021   -500.695885   -500.598223
    6 Atom     -501.428476   -500.854837   -500.805391
    7 Atom     -500.672284   -500.630902   -500.440276
    8 Atom     -501.664501   -501.456907   -500.877476
    9 Atom    -1238.961710  -1236.761323  -1235.685542
   10 Atom    -1238.613449  -1238.554139  -1236.359169
   11 Atom     -500.742056   -500.286387   -500.105360
   12 Atom     -501.096884   -500.425562   -500.368829
   13 Atom     -812.871444   -812.850378   -812.814198
   14 Atom     -501.028689   -500.316793   -500.262816
   15 Atom     -501.033815   -500.343129   -500.296181
   16 Atom     -500.363127   -500.169668   -500.151012
   17 Atom     -500.383335   -500.176310   -500.154392
   18 Atom       -2.208387     -1.622997     -1.538200
   19 Atom       -2.211231     -1.624427     -1.539674
   20 Atom       -2.162595     -1.692445     -1.675570
   21 Atom       -2.152425     -1.693892     -1.659680
   22 Atom       -2.149373     -1.691527     -1.658243
   23 Atom       -2.138967     -1.677908     -1.663358
   24 Atom       -2.126967     -1.713352     -1.691418
   25 Atom       -2.143176     -1.721342     -1.699645
   26 Atom       -2.127212     -1.701525     -1.681111
   27 Atom       -2.129967     -1.706326     -1.684684
   28 Atom       -2.135052     -1.622403     -1.621896
   29 Atom       -2.139057     -1.714804     -1.688124
   30 Atom       -2.150311     -1.723343     -1.695498
   31 Atom       -2.132242     -1.708800     -1.684964
   32 Atom       -2.137862     -1.716050     -1.689827
   33 Atom       -2.103668     -1.661083     -1.649322
   34 Atom       -2.119322     -1.680436     -1.666309
   35 Atom       -2.130552     -1.685224     -1.671267
   36 Atom       -2.103411     -1.661252     -1.649177
   37 Atom       -2.120462     -1.680780     -1.667599
   38 Atom       -2.122961     -1.681280     -1.668710
 -----------------------------------------------------
 -----------------------------------------------------
    Center         ---- Electric Field Gradient ----
                       ( tensor representation )
                   3XX-RR        3YY-RR        3ZZ-RR
 -----------------------------------------------------
    1 Atom       -0.562721     -0.416771      0.979491
    2 Atom        0.205106      0.142900     -0.348006
    3 Atom        0.113814      0.048996     -0.162810
    4 Atom        0.039892      0.281712     -0.321604
    5 Atom        0.137329      0.037087     -0.174415
    6 Atom        0.202427      0.171610     -0.374037
    7 Atom       -0.022960      0.105317     -0.082357
    8 Atom        0.166170      0.148892     -0.315063
    9 Atom       -1.811697      0.397190      1.414507
   10 Atom        1.342083     -0.579005     -0.763078
   11 Atom       -0.342338      0.078670      0.263668
   12 Atom       -0.410447      0.164048      0.246399
   13 Atom       -0.017036      0.006625      0.010412
   14 Atom        0.184507     -0.077980     -0.106526
   15 Atom        0.035726     -0.283751      0.248025
   16 Atom       -0.090864      0.071963      0.018901
   17 Atom        0.070858     -0.099925      0.029067
   18 Atom       -0.185818     -0.050607      0.236425
   19 Atom        0.145406     -0.371295      0.225889
   20 Atom       -0.117747     -0.039595      0.157343
   21 Atom        0.127375     -0.283262      0.155887
   22 Atom       -0.127659     -0.036465      0.164124
   23 Atom        0.135614     -0.280219      0.144605
   24 Atom        0.117990      0.075794     -0.193784
   25 Atom        0.123635     -0.054983     -0.068653
   26 Atom        0.132182      0.089039     -0.221222
   27 Atom        0.114146     -0.062743     -0.051402
   28 Atom        0.166811      0.087342     -0.254153
   29 Atom       -0.031853      0.145744     -0.113891
   30 Atom       -0.198193      0.089764      0.108430
   31 Atom        0.147957      0.103103     -0.251060
   32 Atom        0.018193     -0.054480      0.036287
   33 Atom        0.042210     -0.195322      0.153112
   34 Atom        0.138970      0.114741     -0.253711
   35 Atom        0.011095     -0.043925      0.032831
   36 Atom        0.097855     -0.026561     -0.071294
   37 Atom       -0.033760      0.142110     -0.108350
   38 Atom       -0.198191      0.088751      0.109440
 -----------------------------------------------------
 -----------------------------------------------------
    Center         ---- Electric Field Gradient ----
                       ( tensor representation )
                   ----       Eigenvalues       ----
 -----------------------------------------------------
    1 Atom       -0.577116     -0.466004      1.043119
    2 Atom       -0.370782      0.160473      0.210309
    3 Atom       -0.172395      0.040975      0.131420
    4 Atom       -0.349863      0.000849      0.349014
    5 Atom       -0.183978      0.043158      0.140820
    6 Atom       -0.398908      0.174731      0.224177
    7 Atom       -0.091130     -0.049748      0.140878
    8 Atom       -0.331540     -0.123946      0.455486
    9 Atom       -1.825518      0.374869      1.450650
   10 Atom       -0.771197     -0.711887      1.483083
   11 Atom       -0.364122      0.091547      0.272574
   12 Atom       -0.466459      0.204863      0.261596
   13 Atom       -0.026104     -0.005038      0.031142
   14 Atom       -0.492589      0.219306      0.273284
   15 Atom       -0.476107      0.214579      0.261527
   16 Atom       -0.135192      0.058268      0.076924
   17 Atom       -0.145322      0.061703      0.083620
   18 Atom       -0.418525      0.166864      0.251661
   19 Atom       -0.419454      0.167350      0.252103
   20 Atom       -0.319059      0.151092      0.167967
   21 Atom       -0.317093      0.141440      0.175653
   22 Atom       -0.316325      0.141521      0.174805
   23 Atom       -0.312222      0.148836      0.163386
   24 Atom       -0.283055      0.130560      0.152495
   25 Atom       -0.288455      0.133379      0.155076
   26 Atom       -0.290596      0.135091      0.155505
   27 Atom       -0.289642      0.134000      0.155642
   28 Atom       -0.341935      0.170714      0.171221
   29 Atom       -0.291729      0.132525      0.159204
   30 Atom       -0.293927      0.133041      0.160886
   31 Atom       -0.290240      0.133202      0.157038
   32 Atom       -0.289949      0.131863      0.158086
   33 Atom       -0.298977      0.143608      0.155369
   34 Atom       -0.297300      0.141586      0.155713
   35 Atom       -0.301537      0.143790      0.157747
   36 Atom       -0.298797      0.143361      0.155437
   37 Atom       -0.297515      0.142167      0.155348
   38 Atom       -0.298644      0.143037      0.155607
 -----------------------------------------------------

 Test job not archived.
 1|1|UNPC-NP-ALMACH|FOpt|RB3LYP|6-311++G(d,p)|C13H21N2O2(1+)|HERA|24-Au
 g-2018|0||# RB3LYP/6-311++G** Opt Test prop=EFG||C13N2H21O2||1,1|N,2.0
 695245439,-5.7451061328,2.1666557786|C,1.4719386956,-2.2317403671,1.28
 50811514|C,2.1359657811,-3.3979315765,1.6100910039|C,1.4182479578,-4.5
 910348333,1.8462077663|C,0.0098123568,-4.5624810749,1.7433802635|C,-0.
 6448012695,-3.3929571599,1.4198281813|C,0.0700312528,-2.204267937,1.18
 3026879|C,-0.6860079409,-1.0036976166,0.8451412974|O,0.1283462087,0.10
 51209096,0.6080724858|O,-1.8871805142,-0.8932630184,0.7557746781|C,-0.
 5912411852,1.285734094,0.2909811648|C,0.4852608101,2.3339487897,0.0390
 380984|N,-0.0797895063,3.6482998055,-0.4602574885|C,-1.0417402084,4.31
 07306979,0.535398102|C,1.0398528021,4.5860031246,-0.8953748683|C,0.546
 812762,5.7053635048,-1.7983195168|C,-2.5014782992,4.1205091618,0.15142
 2807|H,1.5646562002,-6.5981985325,2.3349310533|H,3.0716003508,-5.77595
 85164,2.2412023751|H,2.0418596119,-1.3287910686,1.1090450275|H,3.21782
 6306,-3.4026832288,1.6864171795|H,-0.5571371388,-5.4696444843,1.921395
 3476|H,-1.7250445998,-3.3774557214,1.3430949626|H,-1.2112186412,1.1280
 305558,-0.5995235094|H,-1.2562012232,1.5552790599,1.1152744369|H,1.052
 1927693,2.5528162689,0.9447420477|H,1.1731317204,1.9710530333,-0.72506
 10805|H,-0.6253864758,3.4378590398,-1.3008594069|H,-0.8135061316,3.887
 3939546,1.5132272251|H,-0.7852712196,5.3679980521,0.5617384225|H,1.496
 4763123,4.9602942495,0.0220707241|H,1.7732516886,3.9675010662,-1.41318
 24362|H,1.4023131604,6.3185188196,-2.0880442483|H,0.1010188104,5.31451
 37155,-2.7173011488|H,-0.1733804236,6.3635700505,-1.3094104924|H,-3.12
 65283398,4.6251909634,0.8909329226|H,-2.7218707785,4.5693094895,-0.821
 2086974|H,-2.7994132059,3.0708858616,0.1330805114||Version=EM64W-G09Re
 vD.01|State=1-A|HF=-767.9935119|RMSD=4.275e-009|RMSF=1.114e-005|Dipole
 =0.9792646,4.5674082,-1.2126286|Quadrupole=-25.2640446,52.6225915,-27.
 3585469,-13.759029,2.0307328,-23.7681633|PG=C01 [X(C13H21N2O2)]||@


 FROM WHENCE IT HAPPENS, THAT THEY WHICH TRUST TO BOOKS, DO AS THEY THAT CAST UP MANY LITTLE SUMMS INTO GREATER,
 WITHOUT CONSIDERING WETHER THOSE LITTLE SUMMES WERE RIGHTLY CAST UP OR NOT...
 AND AT LAST FINDING THE ERROUR VISIBLE, AND NOT MISTRUSTING THEIR FIRST GROUNDS,
 KNOW NOT WHICH WAY TO CLEERE THEMSELVES...
 BUT SPEND TIME IN FLUTTERING OVER THEIR BOOKES....
 AS BIRDS THAT ENTERING BY THE CHIMNEY, AND FINDING THEMSELVES INCLOSED IN A CHAMBER,
 FLUTTER AT THE FALSE LIGHT OF A GLASSE WINDOW,
 FOR WANT OF WIT TO CONSIDER WHICH WAY THEY CAME IN....
           LEVIATHAN
 Job cpu time:       0 days  0 hours 40 minutes 43.0 seconds.
 File lengths (MBytes):  RWF=    161 Int=      0 D2E=      0 Chk=     22 Scr=      1
 Normal termination of Gaussian 09 at Fri Aug 24 16:59:35 2018.
