 Entering Link 1 = C:\G09W\l1.exe PID=      1660.
  
 Copyright (c) 1988,1990,1992,1993,1995,1998,2003,2009,2013,
            Gaussian, Inc.  All Rights Reserved.
  
 This is part of the Gaussian(R) 09 program.  It is based on
 the Gaussian(R) 03 system (copyright 2003, Gaussian, Inc.),
 the Gaussian(R) 98 system (copyright 1998, Gaussian, Inc.),
 the Gaussian(R) 94 system (copyright 1995, Gaussian, Inc.),
 the Gaussian 92(TM) system (copyright 1992, Gaussian, Inc.),
 the Gaussian 90(TM) system (copyright 1990, Gaussian, Inc.),
 the Gaussian 88(TM) system (copyright 1988, Gaussian, Inc.),
 the Gaussian 86(TM) system (copyright 1986, Carnegie Mellon
 University), and the Gaussian 82(TM) system (copyright 1983,
 Carnegie Mellon University). Gaussian is a federally registered
 trademark of Gaussian, Inc.
  
 This software contains proprietary and confidential information,
 including trade secrets, belonging to Gaussian, Inc.
  
 This software is provided under written license and may be
 used, copied, transmitted, or stored only in accord with that
 written license.
  
 The following legend is applicable only to US Government
 contracts under FAR:
  
                    RESTRICTED RIGHTS LEGEND
  
 Use, reproduction and disclosure by the US Government is
 subject to restrictions as set forth in subparagraphs (a)
 and (c) of the Commercial Computer Software - Restricted
 Rights clause in FAR 52.227-19.
  
 Gaussian, Inc.
 340 Quinnipiac St., Bldg. 40, Wallingford CT 06492
  
  
 ---------------------------------------------------------------
 Warning -- This program may not be used in any manner that
 competes with the business of Gaussian, Inc. or will provide
 assistance to any competitor of Gaussian, Inc.  The licensee
 of this program is prohibited from giving any competitor of
 Gaussian, Inc. access to this program.  By using this program,
 the user acknowledges that Gaussian, Inc. is engaged in the
 business of creating and licensing software in the field of
 computational chemistry and represents and warrants to the
 licensee that it is not a competitor of Gaussian, Inc. and that
 it will not use this program in any manner prohibited above.
 ---------------------------------------------------------------
  

 Cite this work as:
 Gaussian 09, Revision D.01,
 M. J. Frisch, G. W. Trucks, H. B. Schlegel, G. E. Scuseria, 
 M. A. Robb, J. R. Cheeseman, G. Scalmani, V. Barone, B. Mennucci, 
 G. A. Petersson, H. Nakatsuji, M. Caricato, X. Li, H. P. Hratchian, 
 A. F. Izmaylov, J. Bloino, G. Zheng, J. L. Sonnenberg, M. Hada, 
 M. Ehara, K. Toyota, R. Fukuda, J. Hasegawa, M. Ishida, T. Nakajima, 
 Y. Honda, O. Kitao, H. Nakai, T. Vreven, J. A. Montgomery, Jr., 
 J. E. Peralta, F. Ogliaro, M. Bearpark, J. J. Heyd, E. Brothers, 
 K. N. Kudin, V. N. Staroverov, T. Keith, R. Kobayashi, J. Normand, 
 K. Raghavachari, A. Rendell, J. C. Burant, S. S. Iyengar, J. Tomasi, 
 M. Cossi, N. Rega, J. M. Millam, M. Klene, J. E. Knox, J. B. Cross, 
 V. Bakken, C. Adamo, J. Jaramillo, R. Gomperts, R. E. Stratmann, 
 O. Yazyev, A. J. Austin, R. Cammi, C. Pomelli, J. W. Ochterski, 
 R. L. Martin, K. Morokuma, V. G. Zakrzewski, G. A. Voth, 
 P. Salvador, J. J. Dannenberg, S. Dapprich, A. D. Daniels, 
 O. Farkas, J. B. Foresman, J. V. Ortiz, J. Cioslowski, 
 and D. J. Fox, Gaussian, Inc., Wallingford CT, 2013.
 
 ******************************************
 Gaussian 09:  EM64W-G09RevD.01 13-Apr-2013
                22-Aug-2018 
 ******************************************
 %Chk=Anth_360.chk
 %Mem=64GB
 %NProcShared=20
 Will use up to   20 processors via shared memory.
 -------------------------------------
 # RB3LYP/6-311++G** Opt Test prop=EFG
 -------------------------------------
 1/14=-1,18=20,19=15,26=3,38=1/1,3;
 2/9=110,12=2,17=6,18=5,40=1/2;
 3/5=4,6=6,7=1111,11=2,16=1,25=1,30=1,71=1,74=-5,116=1/1,2,3;
 4//1;
 5/5=2,38=5/2;
 6/7=2,8=2,9=2,10=2,14=1,28=1/1,2;
 7//1,2,3,16;
 1/14=-1,18=20,19=15,26=3/3(2);
 2/9=110/2;
 99//99;
 2/9=110/2;
 3/5=4,6=6,7=1111,11=2,16=1,25=1,30=1,71=1,74=-5,116=1/1,2,3;
 4/5=5,16=3,69=1/1;
 5/5=2,38=5/2;
 7//1,2,3,16;
 1/14=-1,18=20,19=15,26=3/3(-5);
 2/9=110/2;
 6/7=2,8=2,9=2,10=2,14=1,19=2,28=1/1,2;
 99/9=1/99;
 ---------
 C13N2H21O
 ---------
 Symbolic Z-matrix:
 Charge =  1 Multiplicity = 1
 C                     3.13569  -0.99136  -3.47682 
 C                     3.35447  -2.17505  -2.8899 
 C                     2.50388  -2.60679  -1.94864 
 C                     1.43542  -1.87489  -1.58232 
 C                     1.21378  -0.6793   -2.17358 
 C                     2.07332  -0.25474  -3.11778 
 C                     0.50919  -2.41276  -0.50887 
 C                    -0.41728   1.2036   -2.08107 
 N                     0.12494  -0.00344  -1.75592 
 C                    -1.71351   1.48398  -1.33644 
 N                    -1.5486    1.0405    0.09532 
 C                    -2.13286   2.95867  -1.31813 
 O                     0.0544    1.98833  -2.86516 
 C                    -2.77106   0.95272   0.97184 
 C                    -2.28286   0.34626   2.29432 
 C                    -3.43215   0.18356   3.29761 
 H                     3.82914  -0.62749  -4.25387 
 H                     4.22515  -2.78683  -3.17924 
 H                     2.69768  -3.58318  -1.47431 
 H                     1.94823   0.704    -3.63924 
 H                     0.83202  -3.40099  -0.11237 
 H                     0.46856  -1.7174    0.36068 
 H                    -0.52068  -2.54931  -0.91093 
 H                    -0.36436  -0.5436   -1.05907 
 H                    -2.5005    0.8586   -1.82114 
 H                    -1.1199    0.08669   0.08354 
 H                    -0.87108   1.69065   0.5558 
 H                    -3.1231    3.10752  -0.8331 
 H                    -2.23422   3.35986  -2.35227 
 H                    -1.38449   3.58318  -0.77874 
 H                    -3.20565   1.96256   1.14503 
 H                    -3.53279   0.29464   0.49439 
 H                    -1.81939  -0.6516    2.10224 
 H                    -1.49489   0.99992   2.74016 
 H                    -3.06884  -0.25857   4.25387 
 H                    -3.90036   1.1663    3.53438 
 H                    -4.22515  -0.48656   2.89368 
 

 GradGradGradGradGradGradGradGradGradGradGradGradGradGradGradGradGradGrad
 Berny optimization.
 Initialization pass.
                           ----------------------------
                           !    Initial Parameters    !
                           ! (Angstroms and Degrees)  !
 --------------------------                            --------------------------
 ! Name  Definition              Value          Derivative Info.                !
 --------------------------------------------------------------------------------
 ! R1    R(1,2)                  1.3392         estimate D2E/DX2                !
 ! R2    R(1,6)                  1.3417         estimate D2E/DX2                !
 ! R3    R(1,17)                 1.1032         estimate D2E/DX2                !
 ! R4    R(2,3)                  1.3401         estimate D2E/DX2                !
 ! R5    R(2,18)                 1.1028         estimate D2E/DX2                !
 ! R6    R(3,4)                  1.3459         estimate D2E/DX2                !
 ! R7    R(3,19)                 1.1027         estimate D2E/DX2                !
 ! R8    R(4,5)                  1.3521         estimate D2E/DX2                !
 ! R9    R(4,7)                  1.5164         estimate D2E/DX2                !
 ! R10   R(5,6)                  1.3456         estimate D2E/DX2                !
 ! R11   R(5,9)                  1.3479         estimate D2E/DX2                !
 ! R12   R(6,20)                 1.0985         estimate D2E/DX2                !
 ! R13   R(7,21)                 1.1127         estimate D2E/DX2                !
 ! R14   R(7,22)                 1.1141         estimate D2E/DX2                !
 ! R15   R(7,23)                 1.114          estimate D2E/DX2                !
 ! R16   R(8,9)                  1.3626         estimate D2E/DX2                !
 ! R17   R(8,10)                 1.521          estimate D2E/DX2                !
 ! R18   R(8,13)                 1.2054         estimate D2E/DX2                !
 ! R19   R(9,24)                 1.0084         estimate D2E/DX2                !
 ! R20   R(10,11)                1.5079         estimate D2E/DX2                !
 ! R21   R(10,12)                1.5333         estimate D2E/DX2                !
 ! R22   R(10,25)                1.116          estimate D2E/DX2                !
 ! R23   R(11,14)                1.5068         estimate D2E/DX2                !
 ! R24   R(11,26)                1.0458         estimate D2E/DX2                !
 ! R25   R(11,27)                1.0458         estimate D2E/DX2                !
 ! R26   R(12,28)                1.1127         estimate D2E/DX2                !
 ! R27   R(12,29)                1.1139         estimate D2E/DX2                !
 ! R28   R(12,30)                1.114          estimate D2E/DX2                !
 ! R29   R(14,15)                1.5346         estimate D2E/DX2                !
 ! R30   R(14,31)                1.1129         estimate D2E/DX2                !
 ! R31   R(14,32)                1.1141         estimate D2E/DX2                !
 ! R32   R(15,16)                1.5342         estimate D2E/DX2                !
 ! R33   R(15,33)                1.1169         estimate D2E/DX2                !
 ! R34   R(15,34)                1.1167         estimate D2E/DX2                !
 ! R35   R(16,35)                1.1144         estimate D2E/DX2                !
 ! R36   R(16,36)                1.114          estimate D2E/DX2                !
 ! R37   R(16,37)                1.114          estimate D2E/DX2                !
 ! A1    A(2,1,6)              119.8241         estimate D2E/DX2                !
 ! A2    A(2,1,17)             119.8374         estimate D2E/DX2                !
 ! A3    A(6,1,17)             120.3385         estimate D2E/DX2                !
 ! A4    A(1,2,3)              119.268          estimate D2E/DX2                !
 ! A5    A(1,2,18)             120.2877         estimate D2E/DX2                !
 ! A6    A(3,2,18)             120.4442         estimate D2E/DX2                !
 ! A7    A(2,3,4)              121.3223         estimate D2E/DX2                !
 ! A8    A(2,3,19)             118.4152         estimate D2E/DX2                !
 ! A9    A(4,3,19)             120.2626         estimate D2E/DX2                !
 ! A10   A(3,4,5)              119.4699         estimate D2E/DX2                !
 ! A11   A(3,4,7)              118.9911         estimate D2E/DX2                !
 ! A12   A(5,4,7)              121.5388         estimate D2E/DX2                !
 ! A13   A(4,5,6)              118.7602         estimate D2E/DX2                !
 ! A14   A(4,5,9)              116.1235         estimate D2E/DX2                !
 ! A15   A(6,5,9)              125.1163         estimate D2E/DX2                !
 ! A16   A(1,6,5)              121.3555         estimate D2E/DX2                !
 ! A17   A(1,6,20)             116.2501         estimate D2E/DX2                !
 ! A18   A(5,6,20)             122.3941         estimate D2E/DX2                !
 ! A19   A(4,7,21)             112.959          estimate D2E/DX2                !
 ! A20   A(4,7,22)             110.6942         estimate D2E/DX2                !
 ! A21   A(4,7,23)             110.6506         estimate D2E/DX2                !
 ! A22   A(21,7,22)            106.6661         estimate D2E/DX2                !
 ! A23   A(21,7,23)            106.7374         estimate D2E/DX2                !
 ! A24   A(22,7,23)            108.934          estimate D2E/DX2                !
 ! A25   A(9,8,10)             112.6811         estimate D2E/DX2                !
 ! A26   A(9,8,13)             125.1821         estimate D2E/DX2                !
 ! A27   A(10,8,13)            122.1364         estimate D2E/DX2                !
 ! A28   A(5,9,8)              133.7643         estimate D2E/DX2                !
 ! A29   A(5,9,24)             109.7253         estimate D2E/DX2                !
 ! A30   A(8,9,24)             116.5097         estimate D2E/DX2                !
 ! A31   A(8,10,11)            108.5082         estimate D2E/DX2                !
 ! A32   A(8,10,12)            114.5969         estimate D2E/DX2                !
 ! A33   A(8,10,25)            106.5629         estimate D2E/DX2                !
 ! A34   A(11,10,12)           107.5439         estimate D2E/DX2                !
 ! A35   A(11,10,25)           108.9483         estimate D2E/DX2                !
 ! A36   A(12,10,25)           110.5663         estimate D2E/DX2                !
 ! A37   A(10,11,14)           118.7339         estimate D2E/DX2                !
 ! A38   A(10,11,26)           107.5998         estimate D2E/DX2                !
 ! A39   A(10,11,27)           107.8235         estimate D2E/DX2                !
 ! A40   A(14,11,26)           106.619          estimate D2E/DX2                !
 ! A41   A(14,11,27)           107.7984         estimate D2E/DX2                !
 ! A42   A(26,11,27)           107.8408         estimate D2E/DX2                !
 ! A43   A(10,12,28)           112.1657         estimate D2E/DX2                !
 ! A44   A(10,12,29)           111.1139         estimate D2E/DX2                !
 ! A45   A(10,12,30)           111.1761         estimate D2E/DX2                !
 ! A46   A(28,12,29)           105.9949         estimate D2E/DX2                !
 ! A47   A(28,12,30)           108.1682         estimate D2E/DX2                !
 ! A48   A(29,12,30)           107.9839         estimate D2E/DX2                !
 ! A49   A(11,14,15)           105.4399         estimate D2E/DX2                !
 ! A50   A(11,14,31)           110.7608         estimate D2E/DX2                !
 ! A51   A(11,14,32)           109.8652         estimate D2E/DX2                !
 ! A52   A(15,14,31)           110.4079         estimate D2E/DX2                !
 ! A53   A(15,14,32)           110.6941         estimate D2E/DX2                !
 ! A54   A(31,14,32)           109.6128         estimate D2E/DX2                !
 ! A55   A(14,15,16)           111.5389         estimate D2E/DX2                !
 ! A56   A(14,15,33)           109.6868         estimate D2E/DX2                !
 ! A57   A(14,15,34)           109.7071         estimate D2E/DX2                !
 ! A58   A(16,15,33)           109.182          estimate D2E/DX2                !
 ! A59   A(16,15,34)           109.2433         estimate D2E/DX2                !
 ! A60   A(33,15,34)           107.3875         estimate D2E/DX2                !
 ! A61   A(15,16,35)           111.0378         estimate D2E/DX2                !
 ! A62   A(15,16,36)           111.1166         estimate D2E/DX2                !
 ! A63   A(15,16,37)           111.0942         estimate D2E/DX2                !
 ! A64   A(35,16,36)           107.7358         estimate D2E/DX2                !
 ! A65   A(35,16,37)           107.7305         estimate D2E/DX2                !
 ! A66   A(36,16,37)           107.9712         estimate D2E/DX2                !
 ! D1    D(6,1,2,3)              0.0122         estimate D2E/DX2                !
 ! D2    D(6,1,2,18)           179.9892         estimate D2E/DX2                !
 ! D3    D(17,1,2,3)          -179.9128         estimate D2E/DX2                !
 ! D4    D(17,1,2,18)            0.0641         estimate D2E/DX2                !
 ! D5    D(2,1,6,5)              0.0065         estimate D2E/DX2                !
 ! D6    D(2,1,6,20)          -179.7822         estimate D2E/DX2                !
 ! D7    D(17,1,6,5)           179.9312         estimate D2E/DX2                !
 ! D8    D(17,1,6,20)            0.1425         estimate D2E/DX2                !
 ! D9    D(1,2,3,4)              0.0051         estimate D2E/DX2                !
 ! D10   D(1,2,3,19)          -179.974          estimate D2E/DX2                !
 ! D11   D(18,2,3,4)          -179.9718         estimate D2E/DX2                !
 ! D12   D(18,2,3,19)            0.0491         estimate D2E/DX2                !
 ! D13   D(2,3,4,5)             -0.0408         estimate D2E/DX2                !
 ! D14   D(2,3,4,7)           -179.8447         estimate D2E/DX2                !
 ! D15   D(19,3,4,5)           179.9379         estimate D2E/DX2                !
 ! D16   D(19,3,4,7)             0.1341         estimate D2E/DX2                !
 ! D17   D(3,4,5,6)              0.0582         estimate D2E/DX2                !
 ! D18   D(3,4,5,9)            179.987          estimate D2E/DX2                !
 ! D19   D(7,4,5,6)            179.8569         estimate D2E/DX2                !
 ! D20   D(7,4,5,9)             -0.2144         estimate D2E/DX2                !
 ! D21   D(3,4,7,21)             0.4935         estimate D2E/DX2                !
 ! D22   D(3,4,7,22)           120.0298         estimate D2E/DX2                !
 ! D23   D(3,4,7,23)          -119.1034         estimate D2E/DX2                !
 ! D24   D(5,4,7,21)          -179.3061         estimate D2E/DX2                !
 ! D25   D(5,4,7,22)           -59.7698         estimate D2E/DX2                !
 ! D26   D(5,4,7,23)            61.097          estimate D2E/DX2                !
 ! D27   D(4,5,6,1)             -0.0418         estimate D2E/DX2                !
 ! D28   D(4,5,6,20)           179.7337         estimate D2E/DX2                !
 ! D29   D(9,5,6,1)           -179.9637         estimate D2E/DX2                !
 ! D30   D(9,5,6,20)            -0.1881         estimate D2E/DX2                !
 ! D31   D(4,5,9,8)            179.0467         estimate D2E/DX2                !
 ! D32   D(4,5,9,24)            -1.2856         estimate D2E/DX2                !
 ! D33   D(6,5,9,8)             -1.0296         estimate D2E/DX2                !
 ! D34   D(6,5,9,24)           178.6381         estimate D2E/DX2                !
 ! D35   D(10,8,9,5)           177.8507         estimate D2E/DX2                !
 ! D36   D(10,8,9,24)           -1.7998         estimate D2E/DX2                !
 ! D37   D(13,8,9,5)            -2.361          estimate D2E/DX2                !
 ! D38   D(13,8,9,24)          177.9886         estimate D2E/DX2                !
 ! D39   D(9,8,10,11)           41.7234         estimate D2E/DX2                !
 ! D40   D(9,8,10,12)          161.9117         estimate D2E/DX2                !
 ! D41   D(9,8,10,25)          -75.4579         estimate D2E/DX2                !
 ! D42   D(13,8,10,11)        -138.0723         estimate D2E/DX2                !
 ! D43   D(13,8,10,12)         -17.8841         estimate D2E/DX2                !
 ! D44   D(13,8,10,25)         104.7463         estimate D2E/DX2                !
 ! D45   D(8,10,11,14)        -167.8506         estimate D2E/DX2                !
 ! D46   D(8,10,11,26)         -46.7796         estimate D2E/DX2                !
 ! D47   D(8,10,11,27)          69.2995         estimate D2E/DX2                !
 ! D48   D(12,10,11,14)         67.6654         estimate D2E/DX2                !
 ! D49   D(12,10,11,26)       -171.2636         estimate D2E/DX2                !
 ! D50   D(12,10,11,27)        -55.1845         estimate D2E/DX2                !
 ! D51   D(25,10,11,14)        -52.2073         estimate D2E/DX2                !
 ! D52   D(25,10,11,26)         68.8638         estimate D2E/DX2                !
 ! D53   D(25,10,11,27)       -175.0572         estimate D2E/DX2                !
 ! D54   D(8,10,12,28)         175.5576         estimate D2E/DX2                !
 ! D55   D(8,10,12,29)          57.1158         estimate D2E/DX2                !
 ! D56   D(8,10,12,30)         -63.1842         estimate D2E/DX2                !
 ! D57   D(11,10,12,28)        -63.7204         estimate D2E/DX2                !
 ! D58   D(11,10,12,29)        177.8377         estimate D2E/DX2                !
 ! D59   D(11,10,12,30)         57.5377         estimate D2E/DX2                !
 ! D60   D(25,10,12,28)         55.1189         estimate D2E/DX2                !
 ! D61   D(25,10,12,29)        -63.3229         estimate D2E/DX2                !
 ! D62   D(25,10,12,30)        176.3771         estimate D2E/DX2                !
 ! D63   D(10,11,14,15)        174.458          estimate D2E/DX2                !
 ! D64   D(10,11,14,31)        -66.0977         estimate D2E/DX2                !
 ! D65   D(10,11,14,32)         55.1439         estimate D2E/DX2                !
 ! D66   D(26,11,14,15)         52.8908         estimate D2E/DX2                !
 ! D67   D(26,11,14,31)        172.3351         estimate D2E/DX2                !
 ! D68   D(26,11,14,32)        -66.4233         estimate D2E/DX2                !
 ! D69   D(27,11,14,15)        -62.6797         estimate D2E/DX2                !
 ! D70   D(27,11,14,31)         56.7647         estimate D2E/DX2                !
 ! D71   D(27,11,14,32)        178.0062         estimate D2E/DX2                !
 ! D72   D(11,14,15,16)       -179.5792         estimate D2E/DX2                !
 ! D73   D(11,14,15,33)        -58.4892         estimate D2E/DX2                !
 ! D74   D(11,14,15,34)         59.2398         estimate D2E/DX2                !
 ! D75   D(31,14,15,16)         60.7428         estimate D2E/DX2                !
 ! D76   D(31,14,15,33)       -178.1671         estimate D2E/DX2                !
 ! D77   D(31,14,15,34)        -60.4382         estimate D2E/DX2                !
 ! D78   D(32,14,15,16)        -60.8168         estimate D2E/DX2                !
 ! D79   D(32,14,15,33)         60.2732         estimate D2E/DX2                !
 ! D80   D(32,14,15,34)        178.0021         estimate D2E/DX2                !
 ! D81   D(14,15,16,35)        179.9195         estimate D2E/DX2                !
 ! D82   D(14,15,16,36)        -60.185          estimate D2E/DX2                !
 ! D83   D(14,15,16,37)         60.0456         estimate D2E/DX2                !
 ! D84   D(33,15,16,35)         58.5358         estimate D2E/DX2                !
 ! D85   D(33,15,16,36)        178.4312         estimate D2E/DX2                !
 ! D86   D(33,15,16,37)        -61.3381         estimate D2E/DX2                !
 ! D87   D(34,15,16,35)        -58.6298         estimate D2E/DX2                !
 ! D88   D(34,15,16,36)         61.2656         estimate D2E/DX2                !
 ! D89   D(34,15,16,37)       -178.5037         estimate D2E/DX2                !
 --------------------------------------------------------------------------------
 Trust Radius=3.00D-01 FncErr=1.00D-07 GrdErr=1.00D-06
 Number of steps in this run=    202 maximum allowed number of steps=    222.
 GradGradGradGradGradGradGradGradGradGradGradGradGradGradGradGradGradGrad

                          Input orientation:                          
 ---------------------------------------------------------------------
 Center     Atomic      Atomic             Coordinates (Angstroms)
 Number     Number       Type             X           Y           Z
 ---------------------------------------------------------------------
      1          6           0        3.135694   -0.991362   -3.476821
      2          6           0        3.354468   -2.175047   -2.889901
      3          6           0        2.503875   -2.606789   -1.948638
      4          6           0        1.435419   -1.874891   -1.582318
      5          6           0        1.213779   -0.679303   -2.173577
      6          6           0        2.073315   -0.254737   -3.117778
      7          6           0        0.509192   -2.412763   -0.508865
      8          6           0       -0.417282    1.203603   -2.081074
      9          7           0        0.124942   -0.003436   -1.755917
     10          6           0       -1.713512    1.483975   -1.336436
     11          7           0       -1.548601    1.040499    0.095323
     12          6           0       -2.132857    2.958669   -1.318127
     13          8           0        0.054403    1.988327   -2.865160
     14          6           0       -2.771061    0.952724    0.971842
     15          6           0       -2.282864    0.346258    2.294324
     16          6           0       -3.432154    0.183564    3.297610
     17          1           0        3.829135   -0.627487   -4.253870
     18          1           0        4.225149   -2.786829   -3.179242
     19          1           0        2.697677   -3.583179   -1.474305
     20          1           0        1.948232    0.704003   -3.639240
     21          1           0        0.832018   -3.400993   -0.112368
     22          1           0        0.468563   -1.717398    0.360678
     23          1           0       -0.520680   -2.549305   -0.910928
     24          1           0       -0.364356   -0.543604   -1.059069
     25          1           0       -2.500504    0.858603   -1.821140
     26          1           0       -1.119895    0.086689    0.083540
     27          1           0       -0.871083    1.690646    0.555804
     28          1           0       -3.123099    3.107522   -0.833097
     29          1           0       -2.234218    3.359859   -2.352269
     30          1           0       -1.384492    3.583179   -0.778742
     31          1           0       -3.205648    1.962561    1.145025
     32          1           0       -3.532791    0.294644    0.494388
     33          1           0       -1.819393   -0.651602    2.102244
     34          1           0       -1.494890    0.999924    2.740163
     35          1           0       -3.068843   -0.258569    4.253870
     36          1           0       -3.900356    1.166299    3.534381
     37          1           0       -4.225149   -0.486562    2.893678
 ---------------------------------------------------------------------
                    Distance matrix (angstroms):
                    1          2          3          4          5
     1  C    0.000000
     2  C    1.339197   0.000000
     3  C    2.311740   1.340107   0.000000
     4  C    2.694569   2.341499   1.345906   0.000000
     5  C    2.342986   2.707936   2.330268   1.352088   0.000000
     6  C    1.341707   2.319671   2.661657   2.321518   1.345576
     7  C    4.210422   3.717719   2.467661   1.516412   2.504514
     8  C    4.403365   5.127921   4.803102   3.627449   2.492840
     9  N    3.605847   4.053597   3.531842   2.291251   1.347888
    10  C    5.850072   6.440972   5.907241   4.610662   3.734918
    11  N    6.231476   6.579619   5.822632   4.496482   3.966909
    12  C    6.929671   7.676995   7.271255   6.013792   5.016633
    13  O    4.329784   5.312695   5.287250   4.298528   2.989764
    14  C    7.645903   7.887846   7.001735   5.675704   5.332553
    15  C    8.028456   8.063044   7.045288   5.812700   5.765451
    16  C    9.508417   9.481908   8.399144   7.193344   7.229324
    17  H    1.103209   2.116757   3.314822   3.797773   3.342213
    18  H    2.121124   1.102761   2.123578   3.341316   3.810692
    19  H    3.304458   2.101933   1.102673   2.126784   3.335181
    20  H    2.076225   3.290583   3.758752   3.338353   2.145023
    21  H    4.736326   3.947200   2.607250   2.203142   3.435392
    22  H    4.729388   4.370830   3.204130   2.175971   2.838210
    23  H    4.730757   4.367285   3.198137   2.175298   2.845969
    24  H    4.277425   4.454571   3.643462   2.298979   1.936763
    25  H    6.158764   6.680268   6.088432   4.797970   4.035501
    26  H    5.652292   5.828956   4.951392   3.626639   3.335769
    27  H    6.285658   6.683693   6.010867   4.754426   4.172868
    28  H    7.934899   8.607837   8.096951   6.794546   5.911467
    29  H    7.002406   7.884012   7.629766   6.439074   5.313703
    30  H    6.974105   7.750606   7.402956   6.195818   5.183178
    31  H    8.384494   8.742743   7.940300   6.610896   6.125675
    32  H    7.867211   8.061459   7.129378   5.805403   5.531414
    33  H    7.469558   7.349234   6.238834   5.066185   5.242475
    34  H    8.003650   8.080491   7.140263   5.961134   5.856751
    35  H    9.939660   9.796187   8.662588   7.547315   7.734982
    36  H   10.164569  10.250291   9.236550   7.993744   7.882982
    37  H    9.747825   9.682529   8.557053   7.348743   7.436139
                    6          7          8          9         10
     6  C    0.000000
     7  C    3.729609   0.000000
     8  C    3.066689   4.050716   0.000000
     9  N    2.390392   2.740008   1.362599   0.000000
    10  C    4.531706   4.561782   1.520956   2.401722   0.000000
    11  N    5.011979   4.065043   2.458290   2.705113   1.507913
    12  C    5.590761   6.040497   2.570125   3.750118   1.533267
    13  O    3.028392   5.012839   1.205433   2.280902   2.391002
    14  C    6.453753   4.927378   3.863096   4.091668   2.593990
    15  C    6.973402   4.823447   4.833171   4.724856   3.847204
    16  C    8.465193   6.063363   6.249814   6.182721   5.110693
    17  H    2.124277   5.313595   5.109402   4.511126   6.609889
    18  H    3.323501   4.591206   6.219460   5.156048   7.543434
    19  H    3.764221   2.662971   5.743206   4.417333   6.719646
    20  H    1.098522   4.645892   2.876306   2.715099   4.395410
    21  H    4.524625   1.112666   5.161285   3.839870   5.642781
    22  H    4.100520   1.114131   3.908852   2.745126   4.229709
    23  H    4.106585   1.113972   3.932461   2.759037   4.227440
    24  H    3.203743   2.135314   2.024853   1.008361   2.451169
    25  H    4.882685   4.634886   2.127535   2.764115   1.115968
    26  H    4.534490   3.041731   2.535097   2.222913   2.078731
    27  H    5.094036   4.458323   2.719609   3.034145   2.081579
    28  H    6.597520   6.616057   3.536071   4.591234   2.208210
    29  H    5.675046   6.651887   2.832709   4.151268   2.195904
    30  H    5.670725   6.293663   2.879921   4.012115   2.196801
    31  H    7.138302   5.973177   4.331133   4.834608   2.934819
    32  H    6.691636   4.967313   4.143140   4.304850   2.841866
    33  H    6.523749   3.916872   4.786215   4.368749   4.049249
    34  H    6.972929   5.120445   4.944396   4.883167   4.111053
    35  H    8.987936   6.334551   7.021413   6.810499   6.010400
    36  H    9.052917   6.971487   6.608066   6.749708   5.348651
    37  H    8.709879   6.140157   6.488811   6.385565   5.299547
                   11         12         13         14         15
    11  N    0.000000
    12  C    2.453278   0.000000
    13  O    3.497493   2.849383   0.000000
    14  C    1.506784   3.110479   4.876300   0.000000
    15  C    2.420066   4.460605   5.897413   1.534632   0.000000
    16  C    3.812709   5.540253   7.307050   2.537291   1.534249
    17  H    7.114612   7.551454   4.797875   8.565496   9.010192
    18  H    7.662076   8.769192   6.347904   8.953363   9.062582
    19  H    6.470936   8.133525   6.321634   7.514329   7.378945
    20  H    5.127186   5.208298   2.415632   6.602701   7.296392
    21  H    5.043544   7.119666   6.101419   5.754350   5.434754
    22  H    3.427150   5.608153   4.930513   4.242433   3.945632
    23  H    3.867280   5.753495   4.973917   4.568725   4.665106
    24  H    2.290074   3.932000   3.138152   3.486521   3.964565
    25  H    2.147565   2.190540   2.982248   2.807634   4.152940
    26  H    1.045792   3.352466   3.700005   2.065296   2.511461
    27  H    1.045832   2.590670   3.556421   2.080272   2.612079
    28  H    2.759274   1.112650   3.934259   2.832824   4.255742
    29  H    3.440960   1.113857   2.716973   4.139108   5.538500
    30  H    2.693723   1.114001   2.994514   3.450567   4.552852
    31  H    2.167459   2.865350   5.168189   1.112937   2.187431
    32  H    2.156980   3.513126   5.198373   1.114120   2.191974
    33  H    2.638990   4.983097   5.929202   2.181133   1.116882
    34  H    2.645696   4.551198   5.898889   2.181238   1.116671
    35  H    4.614350   6.501834   8.092206   3.511070   2.196224
    36  H    4.168177   5.466578   7.567693   2.808474   2.196927
    37  H    4.162525   5.829803   7.589720   2.807022   2.196653
                   16         17         18         19         20
    16  C    0.000000
    17  H   10.507567   0.000000
    18  H   10.459787   2.444261   0.000000
    19  H    8.633328   4.212160   2.423665   0.000000
    20  H    8.794276   2.385043   4.193073   4.860920   0.000000
    21  H    6.531475   5.816106   4.614786   2.317056   5.525916
    22  H    5.239735   5.811661   5.271305   3.437623   4.904278
    23  H    5.801469   5.812877   5.265412   3.426968   4.911540
    24  H    5.377807   5.272491   5.530890   4.334453   3.682644
    25  H    5.246451   6.941972   7.769686   6.846226   4.808393
    26  H    3.960577   6.619371   6.890018   5.519843   4.863494
    27  H    4.043251   7.113280   7.744026   6.683608   5.149796
    28  H    5.070285   8.601485   9.707962   8.891460   6.274531
    29  H    6.591285   7.501951   8.954836   8.561553   5.118863
    30  H    5.689196   7.549048   8.820855   8.276750   5.251586
    31  H    2.801742   9.238213   9.822053   8.512659   7.143923
    32  H    2.807226   8.808759   9.120124   7.598157   6.877214
    33  H    2.174259   8.503331   8.306008   6.464501   6.999807
    34  H    2.174898   8.939251   9.060778   7.506277   7.255304
    35  H    1.114410  10.959007  10.716603   8.781673   9.402062
    36  H    1.114021  11.118433  11.257166   9.548744   9.267175
    37  H    1.114034  10.769345  10.657351   8.751790   9.066813
                   21         22         23         24         25
    21  H    0.000000
    22  H    1.786159   0.000000
    23  H    1.786858   1.813189   0.000000
    24  H    3.239170   2.021689   2.017231   0.000000
    25  H    5.671839   4.495717   4.045000   2.666471   0.000000
    26  H    4.001533   2.419656   2.880363   1.507867   2.475831
    27  H    5.410341   3.667082   4.500141   2.802938   2.999528
    28  H    7.650044   6.132291   6.227225   4.581752   2.534066
    29  H    7.754230   6.359532   6.319169   4.517275   2.570854
    30  H    7.357692   5.729591   6.194433   4.260235   3.123362
    31  H    6.830190   5.259004   5.638522   4.383131   3.242543
    32  H    5.751299   4.480739   4.374445   3.626964   2.597178
    33  H    4.415160   3.066548   3.790401   3.481766   4.258823
    34  H    5.737552   4.111075   5.184262   4.253792   4.672977
    35  H    6.644966   5.458788   6.198044   5.968485   6.202969
    36  H    7.520259   6.121728   6.707361   6.043744   5.543994
    37  H    6.565452   5.473754   5.696756   5.525684   5.197440
                   26         27         28         29         30
    26  H    0.000000
    27  H    1.690449   0.000000
    28  H    3.738781   3.001360   0.000000
    29  H    4.229483   3.619571   1.778108   0.000000
    30  H    3.610953   2.371979   1.803319   1.802191   0.000000
    31  H    2.999335   2.423079   2.287076   3.889368   3.105462
    32  H    2.456442   3.006207   3.137251   4.380102   4.129226
    33  H    2.260428   2.962582   4.944380   6.008876   5.140291
    34  H    2.834125   2.374375   4.456593   5.661163   4.366702
    35  H    4.616195   4.722847   6.100061   7.578304   6.551584
    36  H    4.561231   4.280579   4.842245   6.499259   5.547424
    37  H    4.227067   4.632024   5.293468   6.802847   6.174042
                   31         32         33         34         35
    31  H    0.000000
    32  H    1.819972   0.000000
    33  H    3.109955   2.533045   0.000000
    34  H    2.529393   3.113513   1.799939   0.000000
    35  H    3.823225   3.828185   2.518947   2.520405   0.000000
    36  H    2.612599   3.183778   3.112264   2.538647   1.799813
    37  H    3.177322   2.616531   2.537965   3.112478   1.799763
                   36         37
    36  H    0.000000
    37  H    1.802204   0.000000
 Stoichiometry    C13H21N2O(1+)
 Framework group  C1[X(C13H21N2O)]
 Deg. of freedom   105
 Full point group                 C1      NOp   1
 Largest Abelian subgroup         C1      NOp   1
 Largest concise Abelian subgroup C1      NOp   1
                         Standard orientation:                         
 ---------------------------------------------------------------------
 Center     Atomic      Atomic             Coordinates (Angstroms)
 Number     Number       Type             X           Y           Z
 ---------------------------------------------------------------------
      1          6           0       -4.217402    0.386654   -0.374005
      2          6           0       -4.455752   -0.924496   -0.241629
      3          6           0       -3.438460   -1.750196    0.039833
      4          6           0       -2.183624   -1.287906    0.191940
      5          6           0       -1.941481    0.035546    0.057836
      6          6           0       -2.969573    0.856473   -0.224439
      7          6           0       -1.071679   -2.269850    0.506374
      8          6           0       -0.026001    1.627874    0.156231
      9          7           0       -0.661718    0.424576    0.224164
     10          6           0        1.455650    1.527780    0.484861
     11          7           0        2.010219    0.291391   -0.176649
     12          6           0        2.295901    2.720548    0.013490
     13          8           0       -0.549333    2.674511   -0.133156
     14          6           0        3.384088   -0.186278    0.216689
     15          6           0        3.580598   -1.517457   -0.521175
     16          6           0        4.948041   -2.138626   -0.207854
     17          1           0       -5.048162    1.075063   -0.604228
     18          1           0       -5.478423   -1.318886   -0.362791
     19          1           0       -3.650539   -2.827127    0.145345
     20          1           0       -2.841480    1.941167   -0.341829
     21          1           0       -1.427706   -3.321906    0.573080
     22          1           0       -0.289977   -2.246767   -0.287160
     23          1           0       -0.599549   -2.028222    1.485988
     24          1           0       -0.089565   -0.374659    0.449232
     25          1           0        1.528654    1.410018    1.592194
     26          1           0        1.351453   -0.496123    0.022174
     27          1           0        2.012087    0.454520   -1.209678
     28          1           0        3.355905    2.643596    0.342822
     29          1           0        1.910994    3.675455    0.438549
     30          1           0        2.282675    2.808317   -1.096970
     31          1           0        4.160855    0.547834   -0.093702
     32          1           0        3.431218   -0.336772    1.319592
     33          1           0        2.775933   -2.233586   -0.226052
     34          1           0        3.494302   -1.353887   -1.622425
     35          1           0        5.081307   -3.105065   -0.746506
     36          1           0        5.776797   -1.461094   -0.516328
     37          1           0        5.056549   -2.340123    0.882419
 ---------------------------------------------------------------------
 Rotational constants (GHZ):      0.8282132      0.2763743      0.2125507
 Standard basis: 6-311++G(d,p) (5D, 7F)
 There are   515 symmetry adapted cartesian basis functions of A   symmetry.
 There are   499 symmetry adapted basis functions of A   symmetry.
   499 basis functions,   765 primitive gaussians,   515 cartesian basis functions
    60 alpha electrons       60 beta electrons
       nuclear repulsion energy      1119.1885365225 Hartrees.
 NAtoms=   37 NActive=   37 NUniq=   37 SFac= 1.00D+00 NAtFMM=   60 NAOKFM=F Big=F
 Integral buffers will be    131072 words long.
 Raffenetti 2 integral format.
 Two-electron integral symmetry is turned on.
 One-electron integrals computed using PRISM.
 NBasis=   499 RedAO= T EigKep=  1.19D-06  NBF=   499
 NBsUse=   497 1.00D-06 EigRej=  4.59D-07 NBFU=   497
 ExpMin= 3.60D-02 ExpMax= 8.59D+03 ExpMxC= 1.30D+03 IAcc=3 IRadAn=         5 AccDes= 0.00D+00
 Harris functional with IExCor=  402 and IRadAn=       5 diagonalized for initial guess.
 HarFok:  IExCor=  402 AccDes= 0.00D+00 IRadAn=         5 IDoV= 1 UseB2=F ITyADJ=14
 ICtDFT=  3500011 ScaDFX=  1.000000  1.000000  1.000000  1.000000
 FoFCou: FMM=F IPFlag=           0 FMFlag=      100000 FMFlg1=           0
         NFxFlg=           0 DoJE=T BraDBF=F KetDBF=T FulRan=T
         wScrn=  0.000000 ICntrl=     500 IOpCl=  0 I1Cent=   200000004 NGrid=           0
         NMat0=    1 NMatS0=      1 NMatT0=    0 NMatD0=    1 NMtDS0=    0 NMtDT0=    0
 Petite list used in FoFCou.
 Keep R1 ints in memory in canonical form, NReq=7850865804.
 Requested convergence on RMS density matrix=1.00D-08 within 128 cycles.
 Requested convergence on MAX density matrix=1.00D-06.
 Requested convergence on             energy=1.00D-06.
 No special actions if energy rises.
 SCF Done:  E(RB3LYP) =  -692.694729344     A.U. after   15 cycles
            NFock= 15  Conv=0.89D-08     -V/T= 2.0035

 **********************************************************************

            Population analysis using the SCF density.

 **********************************************************************

 Orbital symmetries:
       Occupied  (A) (A) (A) (A) (A) (A) (A) (A) (A) (A) (A) (A)
                 (A) (A) (A) (A) (A) (A) (A) (A) (A) (A) (A) (A)
                 (A) (A) (A) (A) (A) (A) (A) (A) (A) (A) (A) (A)
                 (A) (A) (A) (A) (A) (A) (A) (A) (A) (A) (A) (A)
                 (A) (A) (A) (A) (A) (A) (A) (A) (A) (A) (A) (A)
       Virtual   (A) (A) (A) (A) (A) (A) (A) (A) (A) (A) (A) (A)
                 (A) (A) (A) (A) (A) (A) (A) (A) (A) (A) (A) (A)
                 (A) (A) (A) (A) (A) (A) (A) (A) (A) (A) (A) (A)
                 (A) (A) (A) (A) (A) (A) (A) (A) (A) (A) (A) (A)
                 (A) (A) (A) (A) (A) (A) (A) (A) (A) (A) (A) (A)
                 (A) (A) (A) (A) (A) (A) (A) (A) (A) (A) (A) (A)
                 (A) (A) (A) (A) (A) (A) (A) (A) (A) (A) (A) (A)
                 (A) (A) (A) (A) (A) (A) (A) (A) (A) (A) (A) (A)
                 (A) (A) (A) (A) (A) (A) (A) (A) (A) (A) (A) (A)
                 (A) (A) (A) (A) (A) (A) (A) (A) (A) (A) (A) (A)
                 (A) (A) (A) (A) (A) (A) (A) (A) (A) (A) (A) (A)
                 (A) (A) (A) (A) (A) (A) (A) (A) (A) (A) (A) (A)
                 (A) (A) (A) (A) (A) (A) (A) (A) (A) (A) (A) (A)
                 (A) (A) (A) (A) (A) (A) (A) (A) (A) (A) (A) (A)
                 (A) (A) (A) (A) (A) (A) (A) (A) (A) (A) (A) (A)
                 (A) (A) (A) (A) (A) (A) (A) (A) (A) (A) (A) (A)
                 (A) (A) (A) (A) (A) (A) (A) (A) (A) (A) (A) (A)
                 (A) (A) (A) (A) (A) (A) (A) (A) (A) (A) (A) (A)
                 (A) (A) (A) (A) (A) (A) (A) (A) (A) (A) (A) (A)
                 (A) (A) (A) (A) (A) (A) (A) (A) (A) (A) (A) (A)
                 (A) (A) (A) (A) (A) (A) (A) (A) (A) (A) (A) (A)
                 (A) (A) (A) (A) (A) (A) (A) (A) (A) (A) (A) (A)
                 (A) (A) (A) (A) (A) (A) (A) (A) (A) (A) (A) (A)
                 (A) (A) (A) (A) (A) (A) (A) (A) (A) (A) (A) (A)
                 (A) (A) (A) (A) (A) (A) (A) (A) (A) (A) (A) (A)
                 (A) (A) (A) (A) (A) (A) (A) (A) (A) (A) (A) (A)
                 (A) (A) (A) (A) (A) (A) (A) (A) (A) (A) (A) (A)
                 (A) (A) (A) (A) (A) (A) (A) (A) (A) (A) (A) (A)
                 (A) (A) (A) (A) (A) (A) (A) (A) (A) (A) (A) (A)
                 (A) (A) (A) (A) (A) (A) (A) (A) (A) (A) (A) (A)
                 (A) (A) (A) (A) (A) (A) (A) (A) (A) (A) (A) (A)
                 (A) (A) (A) (A) (A) (A) (A) (A) (A) (A) (A) (A)
                 (A) (A) (A) (A) (A) (A) (A) (A) (A) (A) (A) (A)
                 (A) (A) (A) (A) (A) (A) (A) (A) (A) (A) (A) (A)
                 (A) (A) (A) (A) (A) (A) (A) (A) (A) (A) (A) (A)
                 (A) (A) (A) (A) (A) (A) (A) (A) (A) (A) (A) (A)
                 (A) (A) (A) (A) (A)
 The electronic state is 1-A.
 Alpha  occ. eigenvalues --  -19.24281 -14.62001 -14.50295 -10.43155 -10.41154
 Alpha  occ. eigenvalues --  -10.40591 -10.34645 -10.33263 -10.32387 -10.30967
 Alpha  occ. eigenvalues --  -10.30814 -10.28845 -10.26784 -10.26711 -10.26269
 Alpha  occ. eigenvalues --  -10.25976  -1.21172  -1.18688  -1.11418  -0.99621
 Alpha  occ. eigenvalues --   -0.97353  -0.93048  -0.90504  -0.88551  -0.85572
 Alpha  occ. eigenvalues --   -0.82634  -0.81442  -0.79025  -0.77698  -0.75780
 Alpha  occ. eigenvalues --   -0.73434  -0.70234  -0.69343  -0.68349  -0.65978
 Alpha  occ. eigenvalues --   -0.64066  -0.62641  -0.59680  -0.58882  -0.58803
 Alpha  occ. eigenvalues --   -0.57958  -0.56658  -0.56227  -0.55486  -0.55039
 Alpha  occ. eigenvalues --   -0.54121  -0.53703  -0.52964  -0.52461  -0.51994
 Alpha  occ. eigenvalues --   -0.51654  -0.50159  -0.49771  -0.49465  -0.46194
 Alpha  occ. eigenvalues --   -0.45204  -0.45039  -0.40913  -0.36550  -0.34756
 Alpha virt. eigenvalues --   -0.17687  -0.16292  -0.14627  -0.13170  -0.11944
 Alpha virt. eigenvalues --   -0.10937  -0.10445  -0.09708  -0.09343  -0.08486
 Alpha virt. eigenvalues --   -0.08337  -0.08130  -0.07655  -0.07033  -0.06589
 Alpha virt. eigenvalues --   -0.05989  -0.05639  -0.05287  -0.05102  -0.04538
 Alpha virt. eigenvalues --   -0.04318  -0.04060  -0.03571  -0.03416  -0.02956
 Alpha virt. eigenvalues --   -0.02457  -0.02214  -0.01857  -0.01614  -0.01094
 Alpha virt. eigenvalues --   -0.00707  -0.00490  -0.00160   0.00508   0.00846
 Alpha virt. eigenvalues --    0.01044   0.01527   0.01746   0.02144   0.02421
 Alpha virt. eigenvalues --    0.02635   0.02938   0.03027   0.03281   0.03348
 Alpha virt. eigenvalues --    0.03830   0.04265   0.04356   0.04463   0.04668
 Alpha virt. eigenvalues --    0.05120   0.05340   0.05474   0.05684   0.05917
 Alpha virt. eigenvalues --    0.06036   0.06126   0.06487   0.06598   0.07018
 Alpha virt. eigenvalues --    0.07217   0.07375   0.07581   0.07848   0.08170
 Alpha virt. eigenvalues --    0.08370   0.08548   0.08942   0.09468   0.09654
 Alpha virt. eigenvalues --    0.09874   0.10436   0.10738   0.10848   0.11120
 Alpha virt. eigenvalues --    0.11708   0.11952   0.12517   0.13037   0.13161
 Alpha virt. eigenvalues --    0.13608   0.14221   0.14698   0.14803   0.15147
 Alpha virt. eigenvalues --    0.15546   0.15759   0.16313   0.16736   0.17142
 Alpha virt. eigenvalues --    0.17477   0.18136   0.18443   0.18816   0.19214
 Alpha virt. eigenvalues --    0.19453   0.19537   0.20279   0.20462   0.21191
 Alpha virt. eigenvalues --    0.21912   0.22414   0.22671   0.22773   0.23365
 Alpha virt. eigenvalues --    0.23913   0.24209   0.24576   0.24772   0.25282
 Alpha virt. eigenvalues --    0.25977   0.26192   0.26432   0.27140   0.28415
 Alpha virt. eigenvalues --    0.28687   0.29808   0.30612   0.31058   0.32848
 Alpha virt. eigenvalues --    0.33020   0.34356   0.35239   0.36124   0.36465
 Alpha virt. eigenvalues --    0.37029   0.38298   0.39648   0.39859   0.40544
 Alpha virt. eigenvalues --    0.41631   0.43736   0.44305   0.44772   0.45223
 Alpha virt. eigenvalues --    0.46131   0.46658   0.46979   0.48219   0.48449
 Alpha virt. eigenvalues --    0.49047   0.49544   0.49687   0.50303   0.50535
 Alpha virt. eigenvalues --    0.50806   0.50939   0.52073   0.52467   0.52742
 Alpha virt. eigenvalues --    0.53214   0.54005   0.54279   0.54422   0.55293
 Alpha virt. eigenvalues --    0.55954   0.56302   0.57379   0.57830   0.58098
 Alpha virt. eigenvalues --    0.58570   0.59125   0.59724   0.60041   0.61231
 Alpha virt. eigenvalues --    0.61398   0.62074   0.62540   0.62854   0.63318
 Alpha virt. eigenvalues --    0.64845   0.65433   0.65532   0.66683   0.68226
 Alpha virt. eigenvalues --    0.69265   0.70444   0.71626   0.71943   0.73569
 Alpha virt. eigenvalues --    0.73969   0.75432   0.76928   0.78007   0.78460
 Alpha virt. eigenvalues --    0.79075   0.80121   0.81228   0.81995   0.82891
 Alpha virt. eigenvalues --    0.83324   0.83966   0.85337   0.85758   0.86171
 Alpha virt. eigenvalues --    0.88789   0.89260   0.91955   0.92195   0.92434
 Alpha virt. eigenvalues --    0.93253   0.94123   0.95234   0.96160   1.00868
 Alpha virt. eigenvalues --    1.01667   1.02093   1.04187   1.04993   1.05344
 Alpha virt. eigenvalues --    1.06607   1.07594   1.09943   1.10771   1.11229
 Alpha virt. eigenvalues --    1.12216   1.15034   1.17090   1.17979   1.18202
 Alpha virt. eigenvalues --    1.20259   1.24502   1.26402   1.27597   1.27938
 Alpha virt. eigenvalues --    1.30503   1.31079   1.31709   1.32261   1.32819
 Alpha virt. eigenvalues --    1.36645   1.37521   1.38578   1.40280   1.40603
 Alpha virt. eigenvalues --    1.41484   1.42040   1.43285   1.43462   1.43999
 Alpha virt. eigenvalues --    1.44515   1.44687   1.45852   1.46104   1.47025
 Alpha virt. eigenvalues --    1.47740   1.47987   1.48519   1.49116   1.50183
 Alpha virt. eigenvalues --    1.50634   1.51461   1.51661   1.53079   1.54770
 Alpha virt. eigenvalues --    1.55384   1.56229   1.56453   1.57398   1.58042
 Alpha virt. eigenvalues --    1.59299   1.59940   1.63417   1.63640   1.63975
 Alpha virt. eigenvalues --    1.64344   1.65306   1.65854   1.66999   1.68558
 Alpha virt. eigenvalues --    1.69331   1.70757   1.71192   1.72170   1.74101
 Alpha virt. eigenvalues --    1.75317   1.77856   1.78833   1.79784   1.80870
 Alpha virt. eigenvalues --    1.83048   1.84494   1.85048   1.86107   1.88011
 Alpha virt. eigenvalues --    1.88901   1.89584   1.90857   1.91407   1.92245
 Alpha virt. eigenvalues --    1.93920   1.94070   1.96069   1.96780   1.97735
 Alpha virt. eigenvalues --    1.99810   2.01024   2.01936   2.02231   2.05425
 Alpha virt. eigenvalues --    2.07826   2.09569   2.11723   2.11917   2.13879
 Alpha virt. eigenvalues --    2.15903   2.16848   2.17045   2.18056   2.18476
 Alpha virt. eigenvalues --    2.20743   2.21425   2.23922   2.28159   2.28294
 Alpha virt. eigenvalues --    2.29679   2.30188   2.31179   2.32743   2.34333
 Alpha virt. eigenvalues --    2.34956   2.35318   2.35597   2.37805   2.38814
 Alpha virt. eigenvalues --    2.40454   2.41068   2.41968   2.42471   2.44460
 Alpha virt. eigenvalues --    2.45079   2.45761   2.46493   2.50113   2.50683
 Alpha virt. eigenvalues --    2.51569   2.53939   2.54783   2.56218   2.58355
 Alpha virt. eigenvalues --    2.58614   2.58977   2.60084   2.61647   2.63018
 Alpha virt. eigenvalues --    2.63697   2.65061   2.66414   2.67090   2.67430
 Alpha virt. eigenvalues --    2.67817   2.69242   2.69961   2.70562   2.72295
 Alpha virt. eigenvalues --    2.73912   2.74512   2.75923   2.76364   2.76960
 Alpha virt. eigenvalues --    2.78954   2.79952   2.81104   2.81433   2.83766
 Alpha virt. eigenvalues --    2.84368   2.85364   2.87129   2.88136   2.90757
 Alpha virt. eigenvalues --    2.93883   2.96934   3.00339   3.03989   3.04169
 Alpha virt. eigenvalues --    3.04898   3.07551   3.14793   3.16877   3.19246
 Alpha virt. eigenvalues --    3.20738   3.25115   3.26051   3.32174   3.36456
 Alpha virt. eigenvalues --    3.39204   3.40126   3.46075   3.47951   3.49178
 Alpha virt. eigenvalues --    3.55601   3.57110   3.59617   3.60608   3.61139
 Alpha virt. eigenvalues --    3.62394   3.62810   3.64107   3.65460   3.65904
 Alpha virt. eigenvalues --    3.71183   3.78662   3.82282   3.85942   3.89759
 Alpha virt. eigenvalues --    3.92329   3.95475   4.03528   4.07356   4.08348
 Alpha virt. eigenvalues --    4.13465   4.21174   4.42035   4.43440   4.60685
 Alpha virt. eigenvalues --    4.76583   4.83512   4.97505   5.03778   5.17281
 Alpha virt. eigenvalues --    5.68932  23.48565  23.61974  23.64250  23.69180
 Alpha virt. eigenvalues --   23.77021  23.77192  23.78137  23.80030  23.96419
 Alpha virt. eigenvalues --   23.97735  24.15533  24.18135  24.30835  35.30210
 Alpha virt. eigenvalues --   35.55902  49.91565
          Condensed to atoms (all electrons):
               1          2          3          4          5          6
     1  C    9.053710   0.335820  -1.361603   1.469253  -1.680547  -1.991532
     2  C    0.335820   7.225531   0.104045  -0.497576   0.863098  -1.185005
     3  C   -1.361603   0.104045   9.935726  -4.228580  -1.866641   2.817352
     4  C    1.469253  -0.497576  -4.228580  12.574759   1.050785  -2.317408
     5  C   -1.680547   0.863098  -1.866641   1.050785  11.323772  -1.014559
     6  C   -1.991532  -1.185005   2.817352  -2.317408  -1.014559   9.321246
     7  C    0.455503  -0.765365   0.530766  -2.890696  -0.861688  -0.122114
     8  C   -0.130469   0.088876   0.008561   0.225755  -1.527746   0.271459
     9  N    0.099417   0.140134  -0.226734   0.330465  -0.070114  -0.266652
    10  C   -0.297601  -0.201554   0.489720  -1.046067   0.653387   0.189343
    11  N    0.026955   0.004319  -0.041336   0.031483  -0.120403  -0.040400
    12  C    0.006329  -0.002082  -0.001866   0.026573  -0.098607  -0.006386
    13  O    0.038881  -0.021640   0.013769  -0.014364  -0.170321   0.068528
    14  C   -0.007296   0.004759   0.008371   0.075128  -0.104028  -0.012911
    15  C   -0.000323  -0.001603   0.009716  -0.054530   0.017051   0.008122
    16  C   -0.000731   0.000451   0.000163   0.019370  -0.009583  -0.001091
    17  H    0.416050  -0.042143  -0.016104   0.028707   0.037406  -0.099887
    18  H    0.027114   0.439888  -0.071374   0.060804  -0.013241  -0.096475
    19  H   -0.038645  -0.004942   0.490545  -0.229827   0.036745   0.091563
    20  H   -0.164405  -0.028285   0.037239  -0.011202   0.025060   0.452080
    21  H    0.006079   0.008051   0.017180  -0.059114   0.023934  -0.019025
    22  H    0.006218   0.023902  -0.185233   0.300765   0.038219  -0.038591
    23  H   -0.007296   0.011385   0.054703  -0.141455   0.014262   0.017802
    24  H    0.071466   0.071714  -0.312693   0.438391  -0.218550  -0.189486
    25  H   -0.009838   0.004505   0.013580   0.003508   0.001016   0.012796
    26  H   -0.036756  -0.027585   0.025653  -0.060266   0.188192   0.017508
    27  H    0.005986   0.002112  -0.001792   0.013995  -0.017132   0.002527
    28  H   -0.000966  -0.000749   0.000834  -0.002654   0.000553  -0.002423
    29  H    0.000728  -0.000368  -0.000474  -0.000570   0.003277  -0.001517
    30  H    0.000357   0.000344  -0.000937  -0.003013   0.003544  -0.002681
    31  H    0.000362   0.000455   0.000342   0.002786  -0.006709   0.002523
    32  H    0.000266  -0.000254  -0.001709  -0.001958   0.001325  -0.000626
    33  H    0.000365  -0.000987   0.000758  -0.028024  -0.004437  -0.000380
    34  H    0.000075  -0.000265   0.001132  -0.001826   0.000786   0.000206
    35  H   -0.000014  -0.000012   0.000143   0.000090  -0.000055   0.000051
    36  H   -0.000008  -0.000008  -0.000066   0.000236   0.000405  -0.000065
    37  H    0.000017   0.000014   0.000052  -0.000503  -0.000202   0.000041
               7          8          9         10         11         12
     1  C    0.455503  -0.130469   0.099417  -0.297601   0.026955   0.006329
     2  C   -0.765365   0.088876   0.140134  -0.201554   0.004319  -0.002082
     3  C    0.530766   0.008561  -0.226734   0.489720  -0.041336  -0.001866
     4  C   -2.890696   0.225755   0.330465  -1.046067   0.031483   0.026573
     5  C   -0.861688  -1.527746  -0.070114   0.653387  -0.120403  -0.098607
     6  C   -0.122114   0.271459  -0.266652   0.189343  -0.040400  -0.006386
     7  C   10.688521  -0.309792  -0.553990   0.414357   0.061634   0.023040
     8  C   -0.309792  15.113743   0.740236 -10.745162   1.225273   0.676253
     9  N   -0.553990   0.740236   7.817661  -1.585845   0.037026  -0.047150
    10  C    0.414357 -10.745162  -1.585845  21.543747  -2.125811  -1.044233
    11  N    0.061634   1.225273   0.037026  -2.125811   7.682669   0.109975
    12  C    0.023040   0.676253  -0.047150  -1.044233   0.109975   5.911261
    13  O    0.015520   0.293615  -0.092834   0.230845  -0.011665  -0.021908
    14  C   -0.089429  -0.047759  -0.020273  -0.653332   0.148219   0.066456
    15  C    0.025364  -0.394099  -0.011183   0.620650  -0.385216  -0.017287
    16  C   -0.017920   0.002760   0.003206  -0.053751  -0.065358   0.004895
    17  H    0.003369   0.002343  -0.007863   0.006633   0.000300   0.000225
    18  H   -0.011430  -0.002436   0.004973  -0.003970   0.000039  -0.000048
    19  H   -0.017726  -0.004093  -0.005880   0.006681  -0.000886  -0.000130
    20  H    0.003465   0.013037  -0.038016   0.040148  -0.005101   0.001139
    21  H    0.390185  -0.001698  -0.005991   0.002975   0.000989   0.000180
    22  H   -0.030807   0.035787   0.081856  -0.050610  -0.015429   0.001631
    23  H    0.474835  -0.007831  -0.062335   0.032090   0.004386   0.002975
    24  H   -0.334237   0.691663   0.541167  -1.230956   0.273670  -0.012134
    25  H   -0.019668  -0.113690   0.022750   0.524811  -0.051315  -0.046742
    26  H   -0.080514  -0.616939  -0.009646   0.961236  -0.154205  -0.072683
    27  H    0.007509   0.102861   0.022969  -0.129658   0.335782   0.006392
    28  H    0.000912  -0.078780  -0.008701   0.033340  -0.062016   0.372784
    29  H    0.002142   0.100029  -0.005662  -0.171547   0.020552   0.447358
    30  H   -0.002959  -0.113158  -0.002555   0.129383   0.040130   0.330493
    31  H    0.000722   0.030705   0.002122  -0.002217  -0.033265   0.020910
    32  H   -0.001139   0.041824  -0.003926  -0.056420   0.050280   0.012682
    33  H    0.051880   0.031788   0.001916  -0.028458  -0.023587   0.003810
    34  H   -0.001670  -0.008633  -0.005994   0.017272   0.060208   0.000508
    35  H   -0.000845  -0.004143   0.000154   0.004273  -0.010583  -0.001131
    36  H   -0.000603  -0.000637   0.000204   0.000375  -0.008282  -0.000887
    37  H    0.000734   0.001491  -0.000299  -0.003570   0.009673   0.002431
              13         14         15         16         17         18
     1  C    0.038881  -0.007296  -0.000323  -0.000731   0.416050   0.027114
     2  C   -0.021640   0.004759  -0.001603   0.000451  -0.042143   0.439888
     3  C    0.013769   0.008371   0.009716   0.000163  -0.016104  -0.071374
     4  C   -0.014364   0.075128  -0.054530   0.019370   0.028707   0.060804
     5  C   -0.170321  -0.104028   0.017051  -0.009583   0.037406  -0.013241
     6  C    0.068528  -0.012911   0.008122  -0.001091  -0.099887  -0.096475
     7  C    0.015520  -0.089429   0.025364  -0.017920   0.003369  -0.011430
     8  C    0.293615  -0.047759  -0.394099   0.002760   0.002343  -0.002436
     9  N   -0.092834  -0.020273  -0.011183   0.003206  -0.007863   0.004973
    10  C    0.230845  -0.653332   0.620650  -0.053751   0.006633  -0.003970
    11  N   -0.011665   0.148219  -0.385216  -0.065358   0.000300   0.000039
    12  C   -0.021908   0.066456  -0.017287   0.004895   0.000225  -0.000048
    13  O    7.944986   0.006051  -0.000288  -0.000043   0.002280  -0.000236
    14  C    0.006051   6.831612  -0.444297   0.197838   0.000011   0.000039
    15  C   -0.000288  -0.444297   5.842527  -0.088341   0.000012  -0.000032
    16  C   -0.000043   0.197838  -0.088341   5.682015  -0.000005   0.000005
    17  H    0.002280   0.000011   0.000012  -0.000005   0.507436  -0.014289
    18  H   -0.000236   0.000039  -0.000032   0.000005  -0.014289   0.515010
    19  H    0.000075  -0.000020   0.000057   0.000034   0.000175  -0.017676
    20  H   -0.001812   0.001065   0.000007   0.000085  -0.011726   0.000444
    21  H   -0.000103  -0.001739  -0.000053   0.000141  -0.000018   0.000079
    22  H    0.000705   0.006609   0.010175  -0.001705   0.000074   0.000486
    23  H   -0.000423  -0.002315  -0.004376  -0.001543  -0.000163   0.000255
    24  H   -0.011793   0.074862  -0.065307   0.017284  -0.000697   0.003508
    25  H   -0.015868  -0.041731   0.013688   0.000438  -0.000267   0.000049
    26  H    0.000694  -0.070865   0.123540  -0.054491   0.000116  -0.000350
    27  H   -0.001557  -0.002920   0.005660   0.001155  -0.000017   0.000028
    28  H    0.008632   0.072750  -0.007154   0.001874   0.000029  -0.000011
    29  H   -0.002448  -0.006681  -0.000225  -0.001101   0.000012  -0.000004
    30  H   -0.010717  -0.033002   0.008288   0.000375   0.000014   0.000007
    31  H   -0.001223   0.325927  -0.015836  -0.000994  -0.000011   0.000006
    32  H   -0.000432   0.355553  -0.011566  -0.026144   0.000009  -0.000004
    33  H   -0.000070  -0.073247   0.416289  -0.032075  -0.000026   0.000007
    34  H    0.000118  -0.067412   0.455405  -0.089425   0.000010  -0.000006
    35  H    0.000005   0.025779  -0.056328   0.407367   0.000000   0.000000
    36  H    0.000018  -0.013487  -0.025441   0.401327   0.000000   0.000000
    37  H    0.000011  -0.040111   0.028516   0.355343   0.000000   0.000000
              19         20         21         22         23         24
     1  C   -0.038645  -0.164405   0.006079   0.006218  -0.007296   0.071466
     2  C   -0.004942  -0.028285   0.008051   0.023902   0.011385   0.071714
     3  C    0.490545   0.037239   0.017180  -0.185233   0.054703  -0.312693
     4  C   -0.229827  -0.011202  -0.059114   0.300765  -0.141455   0.438391
     5  C    0.036745   0.025060   0.023934   0.038219   0.014262  -0.218550
     6  C    0.091563   0.452080  -0.019025  -0.038591   0.017802  -0.189486
     7  C   -0.017726   0.003465   0.390185  -0.030807   0.474835  -0.334237
     8  C   -0.004093   0.013037  -0.001698   0.035787  -0.007831   0.691663
     9  N   -0.005880  -0.038016  -0.005991   0.081856  -0.062335   0.541167
    10  C    0.006681   0.040148   0.002975  -0.050610   0.032090  -1.230956
    11  N   -0.000886  -0.005101   0.000989  -0.015429   0.004386   0.273670
    12  C   -0.000130   0.001139   0.000180   0.001631   0.002975  -0.012134
    13  O    0.000075  -0.001812  -0.000103   0.000705  -0.000423  -0.011793
    14  C   -0.000020   0.001065  -0.001739   0.006609  -0.002315   0.074862
    15  C    0.000057   0.000007  -0.000053   0.010175  -0.004376  -0.065307
    16  C    0.000034   0.000085   0.000141  -0.001705  -0.001543   0.017284
    17  H    0.000175  -0.011726  -0.000018   0.000074  -0.000163  -0.000697
    18  H   -0.017676   0.000444   0.000079   0.000486   0.000255   0.003508
    19  H    0.533119   0.000436   0.009148  -0.001160  -0.001780  -0.005925
    20  H    0.000436   0.466965   0.000115  -0.002019   0.001394  -0.016547
    21  H    0.009148   0.000115   0.425270  -0.021662   0.006146  -0.000237
    22  H   -0.001160  -0.002019  -0.021662   0.766135  -0.126413   0.094777
    23  H   -0.001780   0.001394   0.006146  -0.126413   0.606147  -0.066171
    24  H   -0.005925  -0.016547  -0.000237   0.094777  -0.066171   1.041097
    25  H    0.000005   0.000233  -0.000280  -0.002037   0.003105  -0.030764
    26  H    0.002651   0.003855   0.003772   0.000285   0.021405  -0.310788
    27  H   -0.000175  -0.000318  -0.000236  -0.001172  -0.000304   0.019731
    28  H    0.000028   0.000550  -0.000033  -0.000294   0.000103  -0.001365
    29  H   -0.000004  -0.000050   0.000030  -0.000152   0.000011   0.002041
    30  H   -0.000003  -0.001011   0.000028   0.000611  -0.000271   0.007688
    31  H   -0.000032  -0.000030  -0.000080   0.001394  -0.000560  -0.003574
    32  H    0.000013  -0.000154  -0.000072   0.001806  -0.000926   0.019858
    33  H    0.000057   0.000130   0.001794  -0.010294   0.001353  -0.007919
    34  H   -0.000011  -0.000073  -0.000232   0.002334   0.000220   0.010902
    35  H    0.000003   0.000000  -0.000053   0.000637  -0.000092  -0.001316
    36  H    0.000004   0.000004  -0.000056   0.000146   0.000227  -0.001365
    37  H   -0.000012  -0.000003   0.000122   0.000504  -0.000481   0.002161
              25         26         27         28         29         30
     1  C   -0.009838  -0.036756   0.005986  -0.000966   0.000728   0.000357
     2  C    0.004505  -0.027585   0.002112  -0.000749  -0.000368   0.000344
     3  C    0.013580   0.025653  -0.001792   0.000834  -0.000474  -0.000937
     4  C    0.003508  -0.060266   0.013995  -0.002654  -0.000570  -0.003013
     5  C    0.001016   0.188192  -0.017132   0.000553   0.003277   0.003544
     6  C    0.012796   0.017508   0.002527  -0.002423  -0.001517  -0.002681
     7  C   -0.019668  -0.080514   0.007509   0.000912   0.002142  -0.002959
     8  C   -0.113690  -0.616939   0.102861  -0.078780   0.100029  -0.113158
     9  N    0.022750  -0.009646   0.022969  -0.008701  -0.005662  -0.002555
    10  C    0.524811   0.961236  -0.129658   0.033340  -0.171547   0.129383
    11  N   -0.051315  -0.154205   0.335782  -0.062016   0.020552   0.040130
    12  C   -0.046742  -0.072683   0.006392   0.372784   0.447358   0.330493
    13  O   -0.015868   0.000694  -0.001557   0.008632  -0.002448  -0.010717
    14  C   -0.041731  -0.070865  -0.002920   0.072750  -0.006681  -0.033002
    15  C    0.013688   0.123540   0.005660  -0.007154  -0.000225   0.008288
    16  C    0.000438  -0.054491   0.001155   0.001874  -0.001101   0.000375
    17  H   -0.000267   0.000116  -0.000017   0.000029   0.000012   0.000014
    18  H    0.000049  -0.000350   0.000028  -0.000011  -0.000004   0.000007
    19  H    0.000005   0.002651  -0.000175   0.000028  -0.000004  -0.000003
    20  H    0.000233   0.003855  -0.000318   0.000550  -0.000050  -0.001011
    21  H   -0.000280   0.003772  -0.000236  -0.000033   0.000030   0.000028
    22  H   -0.002037   0.000285  -0.001172  -0.000294  -0.000152   0.000611
    23  H    0.003105   0.021405  -0.000304   0.000103   0.000011  -0.000271
    24  H   -0.030764  -0.310788   0.019731  -0.001365   0.002041   0.007688
    25  H    0.467040   0.022119  -0.006324  -0.018875  -0.008484   0.009958
    26  H    0.022119   1.031178  -0.077928   0.009046  -0.002481   0.003291
    27  H   -0.006324  -0.077928   0.353816   0.002976  -0.000160  -0.011198
    28  H   -0.018875   0.009046   0.002976   0.600181  -0.024165  -0.056588
    29  H   -0.008484  -0.002481  -0.000160  -0.024165   0.428293  -0.015038
    30  H    0.009958   0.003291  -0.011198  -0.056588  -0.015038   0.520246
    31  H    0.005976  -0.004082  -0.004239  -0.004040   0.002733  -0.003228
    32  H   -0.001759  -0.054815   0.001493  -0.009664   0.000031   0.003911
    33  H   -0.001933   0.030454   0.002645   0.000265   0.000441  -0.001159
    34  H    0.000234  -0.049018   0.003818  -0.000755   0.000211   0.001355
    35  H    0.000158   0.008045  -0.000151   0.000444  -0.000034   0.000016
    36  H   -0.000360   0.007741   0.000222   0.001201  -0.000032  -0.000260
    37  H   -0.000271  -0.008727   0.001172  -0.000214   0.000019  -0.000108
              31         32         33         34         35         36
     1  C    0.000362   0.000266   0.000365   0.000075  -0.000014  -0.000008
     2  C    0.000455  -0.000254  -0.000987  -0.000265  -0.000012  -0.000008
     3  C    0.000342  -0.001709   0.000758   0.001132   0.000143  -0.000066
     4  C    0.002786  -0.001958  -0.028024  -0.001826   0.000090   0.000236
     5  C   -0.006709   0.001325  -0.004437   0.000786  -0.000055   0.000405
     6  C    0.002523  -0.000626  -0.000380   0.000206   0.000051  -0.000065
     7  C    0.000722  -0.001139   0.051880  -0.001670  -0.000845  -0.000603
     8  C    0.030705   0.041824   0.031788  -0.008633  -0.004143  -0.000637
     9  N    0.002122  -0.003926   0.001916  -0.005994   0.000154   0.000204
    10  C   -0.002217  -0.056420  -0.028458   0.017272   0.004273   0.000375
    11  N   -0.033265   0.050280  -0.023587   0.060208  -0.010583  -0.008282
    12  C    0.020910   0.012682   0.003810   0.000508  -0.001131  -0.000887
    13  O   -0.001223  -0.000432  -0.000070   0.000118   0.000005   0.000018
    14  C    0.325927   0.355553  -0.073247  -0.067412   0.025779  -0.013487
    15  C   -0.015836  -0.011566   0.416289   0.455405  -0.056328  -0.025441
    16  C   -0.000994  -0.026144  -0.032075  -0.089425   0.407367   0.401327
    17  H   -0.000011   0.000009  -0.000026   0.000010   0.000000   0.000000
    18  H    0.000006  -0.000004   0.000007  -0.000006   0.000000   0.000000
    19  H   -0.000032   0.000013   0.000057  -0.000011   0.000003   0.000004
    20  H   -0.000030  -0.000154   0.000130  -0.000073   0.000000   0.000004
    21  H   -0.000080  -0.000072   0.001794  -0.000232  -0.000053  -0.000056
    22  H    0.001394   0.001806  -0.010294   0.002334   0.000637   0.000146
    23  H   -0.000560  -0.000926   0.001353   0.000220  -0.000092   0.000227
    24  H   -0.003574   0.019858  -0.007919   0.010902  -0.001316  -0.001365
    25  H    0.005976  -0.001759  -0.001933   0.000234   0.000158  -0.000360
    26  H   -0.004082  -0.054815   0.030454  -0.049018   0.008045   0.007741
    27  H   -0.004239   0.001493   0.002645   0.003818  -0.000151   0.000222
    28  H   -0.004040  -0.009664   0.000265  -0.000755   0.000444   0.001201
    29  H    0.002733   0.000031   0.000441   0.000211  -0.000034  -0.000032
    30  H   -0.003228   0.003911  -0.001159   0.001355   0.000016  -0.000260
    31  H    0.498911  -0.024681   0.016933  -0.016147  -0.004999   0.002829
    32  H   -0.024681   0.465970  -0.015900   0.015394  -0.001930  -0.002735
    33  H    0.016933  -0.015900   0.624993  -0.079450  -0.008665   0.008911
    34  H   -0.016147   0.015394  -0.079450   0.603409  -0.003960  -0.025359
    35  H   -0.004999  -0.001930  -0.008665  -0.003960   0.497226  -0.015547
    36  H    0.002829  -0.002735   0.008911  -0.025359  -0.015547   0.568862
    37  H    0.000732   0.008886  -0.020743   0.016901  -0.022886  -0.058202
              37
     1  C    0.000017
     2  C    0.000014
     3  C    0.000052
     4  C   -0.000503
     5  C   -0.000202
     6  C    0.000041
     7  C    0.000734
     8  C    0.001491
     9  N   -0.000299
    10  C   -0.003570
    11  N    0.009673
    12  C    0.002431
    13  O    0.000011
    14  C   -0.040111
    15  C    0.028516
    16  C    0.355343
    17  H    0.000000
    18  H    0.000000
    19  H   -0.000012
    20  H   -0.000003
    21  H    0.000122
    22  H    0.000504
    23  H   -0.000481
    24  H    0.002161
    25  H   -0.000271
    26  H   -0.008727
    27  H    0.001172
    28  H   -0.000214
    29  H    0.000019
    30  H   -0.000108
    31  H    0.000732
    32  H    0.008886
    33  H   -0.020743
    34  H    0.016901
    35  H   -0.022886
    36  H   -0.058202
    37  H    0.569735
 Mulliken charges:
               1
     1  C   -0.292923
     2  C   -0.548982
     3  C   -0.243207
     4  C    0.936781
     5  C   -0.498257
     6  C    0.136067
     7  C   -1.037866
     8  C    0.409006
     9  N    0.185385
    10  C   -0.470502
    11  N    0.031296
    12  C   -0.655029
    13  O   -0.244991
    14  C   -0.468176
    15  C   -0.001584
    16  C   -0.651827
    17  H    0.188006
    18  H    0.178842
    19  H    0.157585
    20  H    0.233300
    21  H    0.214462
    22  H    0.112523
    23  H    0.171928
    24  H    0.439844
    25  H    0.264239
    26  H    0.231356
    27  H    0.362432
    28  H    0.172949
    29  H    0.233287
    30  H    0.197849
    31  H    0.209578
    32  H    0.237513
    33  H    0.142563
    34  H    0.159738
    35  H    0.188352
    36  H    0.160687
    37  H    0.157777
 Sum of Mulliken charges =   1.00000
 Mulliken charges with hydrogens summed into heavy atoms:
               1
     1  C   -0.104917
     2  C   -0.370140
     3  C   -0.085622
     4  C    0.936781
     5  C   -0.498257
     6  C    0.369367
     7  C   -0.538954
     8  C    0.409006
     9  N    0.625229
    10  C   -0.206264
    11  N    0.625085
    12  C   -0.050944
    13  O   -0.244991
    14  C   -0.021085
    15  C    0.300718
    16  C   -0.145011
 Electronic spatial extent (au):  <R**2>=           5088.6567
 Charge=              1.0000 electrons
 Dipole moment (field-independent basis, Debye):
    X=              9.2678    Y=             -2.4292    Z=              0.2805  Tot=              9.5849
 Quadrupole moment (field-independent basis, Debye-Ang):
   XX=            -46.6382   YY=            -87.1075   ZZ=            -94.2258
   XY=              4.4752   XZ=             -0.3933   YZ=              0.4820
 Traceless Quadrupole moment (field-independent basis, Debye-Ang):
   XX=             29.3523   YY=            -11.1170   ZZ=            -18.2353
   XY=              4.4752   XZ=             -0.3933   YZ=              0.4820
 Octapole moment (field-independent basis, Debye-Ang**2):
  XXX=             66.5290  YYY=            -17.6530  ZZZ=              0.8651  XYY=             26.1020
  XXY=            -18.2188  XXZ=            -16.7434  XZZ=             26.1986  YZZ=              7.5673
  YYZ=              5.5457  XYZ=              6.0708
 Hexadecapole moment (field-independent basis, Debye-Ang**3):
 XXXX=          -4056.7543 YYYY=          -1590.7819 ZZZZ=           -193.5169 XXXY=            -77.1400
 XXXZ=             32.9768 YYYX=             60.1927 YYYZ=             13.2094 ZZZX=             -7.8623
 ZZZY=             -1.2277 XXYY=           -936.3576 XXZZ=           -884.0111 YYZZ=           -308.3337
 XXYZ=              0.9451 YYXZ=             -9.4680 ZZXY=             -8.4048
 N-N= 1.119188536523D+03 E-N=-3.831190452244D+03  KE= 6.902547514925D+02

 **********************************************************************

            Electrostatic Properties Using The SCF Density

 **********************************************************************

       Atomic Center    1 is at  -4.217402  0.386654 -0.374005
       Atomic Center    2 is at  -4.455752 -0.924496 -0.241629
       Atomic Center    3 is at  -3.438460 -1.750196  0.039833
       Atomic Center    4 is at  -2.183624 -1.287906  0.191940
       Atomic Center    5 is at  -1.941481  0.035546  0.057836
       Atomic Center    6 is at  -2.969573  0.856473 -0.224439
       Atomic Center    7 is at  -1.071679 -2.269850  0.506374
       Atomic Center    8 is at  -0.026001  1.627874  0.156231
       Atomic Center    9 is at  -0.661718  0.424576  0.224164
       Atomic Center   10 is at   1.455650  1.527780  0.484861
       Atomic Center   11 is at   2.010219  0.291391 -0.176649
       Atomic Center   12 is at   2.295901  2.720548  0.013490
       Atomic Center   13 is at  -0.549333  2.674511 -0.133156
       Atomic Center   14 is at   3.384088 -0.186278  0.216689
       Atomic Center   15 is at   3.580598 -1.517457 -0.521175
       Atomic Center   16 is at   4.948041 -2.138626 -0.207854
       Atomic Center   17 is at  -5.048162  1.075063 -0.604228
       Atomic Center   18 is at  -5.478423 -1.318886 -0.362791
       Atomic Center   19 is at  -3.650539 -2.827127  0.145345
       Atomic Center   20 is at  -2.841480  1.941167 -0.341829
       Atomic Center   21 is at  -1.427706 -3.321906  0.573080
       Atomic Center   22 is at  -0.289977 -2.246767 -0.287160
       Atomic Center   23 is at  -0.599549 -2.028222  1.485988
       Atomic Center   24 is at  -0.089565 -0.374659  0.449232
       Atomic Center   25 is at   1.528654  1.410018  1.592194
       Atomic Center   26 is at   1.351453 -0.496123  0.022174
       Atomic Center   27 is at   2.012087  0.454520 -1.209678
       Atomic Center   28 is at   3.355905  2.643596  0.342822
       Atomic Center   29 is at   1.910994  3.675455  0.438549
       Atomic Center   30 is at   2.282675  2.808317 -1.096970
       Atomic Center   31 is at   4.160855  0.547834 -0.093702
       Atomic Center   32 is at   3.431218 -0.336772  1.319592
       Atomic Center   33 is at   2.775933 -2.233586 -0.226052
       Atomic Center   34 is at   3.494302 -1.353887 -1.622425
       Atomic Center   35 is at   5.081307 -3.105065 -0.746506
       Atomic Center   36 is at   5.776797 -1.461094 -0.516328
       Atomic Center   37 is at   5.056549 -2.340123  0.882419
 -----------------------------------------------------------------

              Electrostatic Properties (Atomic Units)

 -----------------------------------------------------------------
    Center     Electric         -------- Electric Field --------
               Potential          X             Y             Z
 -----------------------------------------------------------------
    1 Atom    -14.691641     -0.010196      0.006856     -0.002598
    2 Atom    -14.694612     -0.013065     -0.004271     -0.001622
    3 Atom    -14.686514     -0.003435     -0.011567      0.000995
    4 Atom    -14.664372      0.004548     -0.011419      0.002142
    5 Atom    -14.628785     -0.013530     -0.002087     -0.002014
    6 Atom    -14.686523     -0.001530      0.016307     -0.002330
    7 Atom    -14.635552     -0.003288     -0.001693      0.000551
    8 Atom    -14.518613      0.005981      0.000163      0.000063
    9 Atom    -18.208096      0.005344      0.004503      0.000589
   10 Atom    -14.535178     -0.001008      0.013982      0.004843
   11 Atom    -18.092433      0.003399      0.002681      0.004105
   12 Atom    -14.612235      0.000638      0.005570     -0.000198
   13 Atom    -22.257474     -0.023366      0.048088     -0.013152
   14 Atom    -14.540279      0.013037     -0.008135      0.001409
   15 Atom    -14.598451      0.003812     -0.003680     -0.000751
   16 Atom    -14.636386      0.002654     -0.001810      0.000163
   17 Atom     -1.017429     -0.003019      0.005281     -0.001193
   18 Atom     -1.018711     -0.005760     -0.003070     -0.000556
   19 Atom     -1.009473      0.001138     -0.007257      0.001203
   20 Atom     -1.012146      0.007911      0.007130      0.000290
   21 Atom     -0.981191     -0.002204     -0.001374     -0.000472
   22 Atom     -0.972047      0.007117     -0.003903     -0.005637
   23 Atom     -0.975557      0.004822     -0.001830      0.007370
   24 Atom     -0.849312      0.005479     -0.012734      0.012327
   25 Atom     -0.910970      0.005066     -0.004496      0.004083
   26 Atom     -0.777297      0.008341     -0.004057     -0.008736
   27 Atom     -0.780561     -0.003330     -0.001954     -0.004274
   28 Atom     -0.956965      0.003086     -0.002049      0.002301
   29 Atom     -0.960841     -0.004313      0.000729     -0.000681
   30 Atom     -0.955822     -0.002087      0.002265     -0.004461
   31 Atom     -0.916393     -0.001581      0.005118      0.000068
   32 Atom     -0.915019     -0.003113      0.003358      0.003649
   33 Atom     -0.954083     -0.003650     -0.003259      0.000722
   34 Atom     -0.954764     -0.000957      0.000355     -0.004658
   35 Atom     -0.985666      0.000241     -0.001919     -0.001151
   36 Atom     -0.985406      0.003721      0.001514     -0.001352
   37 Atom     -0.985376      0.001182     -0.001640      0.003780
 -----------------------------------------------------------------
 -----------------------------------------------------
    Center         ---- Electric Field Gradient ----
                     XX            YY            ZZ
 -----------------------------------------------------
    1 Atom     -500.916185   -500.861505   -501.402413
    2 Atom     -500.946034   -500.838775   -501.390441
    3 Atom     -500.861304   -500.953768   -501.357274
    4 Atom     -500.745758   -500.793834   -501.068523
    5 Atom     -500.946272   -500.547837   -500.931005
    6 Atom     -500.772922   -500.818079   -501.217744
    7 Atom     -500.299961   -500.251763   -500.315315
    8 Atom     -500.835336   -500.854841   -501.234623
    9 Atom     -812.386782   -812.464944   -811.335881
   10 Atom     -500.490785   -500.821835   -500.497718
   11 Atom     -812.811760   -812.799706   -812.834370
   12 Atom     -500.242276   -500.265548   -500.213831
   13 Atom    -1236.862725  -1238.297215  -1239.040052
   14 Atom     -500.889130   -500.393119   -500.364018
   15 Atom     -500.232683   -500.367237   -500.283309
   16 Atom     -500.308569   -500.181562   -500.172910
   17 Atom       -1.897704     -1.827958     -1.665494
   18 Atom       -2.021362     -1.720781     -1.653133
   19 Atom       -1.690720     -2.070427     -1.657173
   20 Atom       -1.665995     -2.062404     -1.645010
   21 Atom       -1.680160     -1.988466     -1.630419
   22 Atom       -1.873508     -1.674218     -1.867509
[...]
 XXXX=          -5447.7905 YYYY=           -842.3781 ZZZZ=           -305.7364 XXXY=             68.4326
 XXXZ=            -44.0026 YYYX=            -13.9721 YYYZ=              9.1861 ZZZX=             -4.8509
 ZZZY=             -5.8674 XXYY=          -1207.9390 XXZZ=          -1278.3057 YYZZ=           -200.7495
 XXYZ=             21.4630 YYXZ=             -6.3615 ZZXY=             13.7976
 N-N= 1.081399198776D+03 E-N=-3.756159123457D+03  KE= 6.896314062379D+02

 **********************************************************************

            Electrostatic Properties Using The SCF Density

 **********************************************************************

       Atomic Center    1 is at  -3.822472  1.914249  0.265670
       Atomic Center    2 is at  -4.895145  1.071745 -0.005919
       Atomic Center    3 is at  -4.662593 -0.272058 -0.288277
       Atomic Center    4 is at  -3.372323 -0.802805 -0.306938
       Atomic Center    5 is at  -2.302561  0.070238 -0.026575
       Atomic Center    6 is at  -2.520974  1.420662  0.257217
       Atomic Center    7 is at  -3.152522 -2.264368 -0.620446
       Atomic Center    8 is at   0.202493  0.110050  0.083216
       Atomic Center    9 is at  -0.988598 -0.498351 -0.032669
       Atomic Center   10 is at   1.436250 -0.834226  0.149048
       Atomic Center   11 is at   2.566314  0.051169 -0.348602
       Atomic Center   12 is at   1.670024 -1.327931  1.576603
       Atomic Center   13 is at   0.415861  1.316831  0.173905
       Atomic Center   14 is at   3.992444 -0.262039  0.033918
       Atomic Center   15 is at   4.954217  0.692360 -0.669675
       Atomic Center   16 is at   6.408550  0.413295 -0.274570
       Atomic Center   17 is at  -3.990219  2.961524  0.485998
       Atomic Center   18 is at  -5.908282  1.455128  0.000107
       Atomic Center   19 is at  -5.499252 -0.928075 -0.500973
       Atomic Center   20 is at  -1.687845  2.074162  0.463984
       Atomic Center   21 is at  -4.104399 -2.760286 -0.808695
       Atomic Center   22 is at  -2.537065 -2.407986 -1.516319
       Atomic Center   23 is at  -2.679649 -2.803999  0.210148
       Atomic Center   24 is at  -0.969761 -1.503798 -0.132974
       Atomic Center   25 is at   1.352087 -1.672456 -0.545721
       Atomic Center   26 is at   2.511396  0.094862 -1.369578
       Atomic Center   27 is at   2.271935  0.999804 -0.033787
       Atomic Center   28 is at   2.537339 -1.985756  1.645266
       Atomic Center   29 is at   0.798568 -1.900189  1.898827
       Atomic Center   30 is at   1.790434 -0.493182  2.270997
       Atomic Center   31 is at   4.063589 -0.169494  1.116810
       Atomic Center   32 is at   4.183698 -1.300795 -0.242253
       Atomic Center   33 is at   4.841969  0.591782 -1.755787
       Atomic Center   34 is at   4.693741  1.725661 -0.415071
       Atomic Center   35 is at   7.077529  1.103327 -0.790369
       Atomic Center   36 is at   6.561980  0.543338  0.799658
       Atomic Center   37 is at   6.708985 -0.602978 -0.542258
 -----------------------------------------------------------------

              Electrostatic Properties (Atomic Units)

 -----------------------------------------------------------------
    Center     Electric         -------- Electric Field --------
               Potential          X             Y             Z
 -----------------------------------------------------------------
    1 Atom    -14.680045     -0.001222      0.001005      0.000094
    2 Atom    -14.681835     -0.001014      0.000656      0.000079
    3 Atom    -14.678152     -0.001264      0.000366     -0.000003
    4 Atom    -14.654762     -0.002310     -0.001900     -0.000810
    5 Atom    -14.614828     -0.011297      0.004910      0.000022
    6 Atom    -14.674345      0.000084      0.003493      0.000829
    7 Atom    -14.662908     -0.001823      0.001036     -0.000190
    8 Atom    -14.512855      0.006641     -0.006198     -0.000497
    9 Atom    -18.205373     -0.005056      0.001119     -0.000896
   10 Atom    -14.537838     -0.007984     -0.005015      0.004790
   11 Atom    -18.124926      0.002212     -0.001522      0.005346
   12 Atom    -14.613819      0.000468     -0.000517      0.002284
   13 Atom    -22.245171      0.004201      0.050613      0.003499
   14 Atom    -14.562445      0.012664      0.000409      0.001230
   15 Atom    -14.620326      0.004343      0.000617      0.000278
   16 Atom    -14.656060      0.000627      0.000226     -0.000086
   17 Atom     -1.018527     -0.003003      0.018739      0.003938
   18 Atom     -1.019544     -0.018134      0.006874      0.000114
   19 Atom     -1.014391     -0.014910     -0.011484     -0.003765
   20 Atom     -1.009907      0.015052      0.012202      0.003795
   21 Atom     -1.007439     -0.016006     -0.008536     -0.003233
   22 Atom     -1.001308      0.009581     -0.002660     -0.014967
   23 Atom     -0.999442      0.007071     -0.009069      0.013396
   24 Atom     -0.863746      0.000116     -0.022182     -0.002392
   25 Atom     -0.920432     -0.001298     -0.014749     -0.011867
   26 Atom     -0.811458     -0.001243      0.001098     -0.020884
   27 Atom     -0.818151     -0.005017      0.017701      0.005667
   28 Atom     -0.956433      0.014612     -0.011202      0.001377
   29 Atom     -0.953518     -0.014400     -0.009697      0.005784
   30 Atom     -0.956793      0.002028      0.013849      0.011931
   31 Atom     -0.939867      0.001356      0.001454      0.018866
   32 Atom     -0.939082      0.003502     -0.017854     -0.004570
   33 Atom     -0.975595     -0.001256     -0.001415     -0.017755
   34 Atom     -0.976882     -0.003781      0.017145      0.004048
   35 Atom     -1.001753      0.011465      0.011538     -0.008588
   36 Atom     -1.000879      0.003009      0.002312      0.017751
   37 Atom     -1.000726      0.005392     -0.016680     -0.004498
 -----------------------------------------------------------------
 -----------------------------------------------------
    Center         ---- Electric Field Gradient ----
                     XX            YY            ZZ
 -----------------------------------------------------
    1 Atom     -500.763391   -500.792037   -501.243062
    2 Atom     -500.781026   -500.794330   -501.265726
    3 Atom     -500.836270   -500.791063   -501.242438
    4 Atom     -500.600442   -500.731749   -501.002440
    5 Atom     -500.931348   -500.465117   -500.755615
    6 Atom     -500.657027   -500.788638   -501.143854
    7 Atom     -500.165767   -500.294453   -500.226886
    8 Atom     -500.876076   -500.772897   -501.289808
    9 Atom     -812.474622   -812.388159   -811.339907
   10 Atom     -500.757464   -500.545156   -500.381069
   11 Atom     -812.776777   -812.530002   -812.695265
   12 Atom     -500.195126   -500.215819   -500.405278
   13 Atom    -1236.484252  -1238.550221  -1238.384245
   14 Atom     -500.955027   -500.357140   -500.352590
   15 Atom     -500.283584   -500.267248   -500.242614
   16 Atom     -500.344160   -500.177865   -500.186559
   17 Atom       -1.699447     -2.121095     -1.687918
   18 Atom       -2.092582     -1.743950     -1.667678
   19 Atom       -1.965443     -1.863161     -1.688253
   20 Atom       -1.950024     -1.854852     -1.676892
   21 Atom       -2.025206     -1.770914     -1.681683
   22 Atom       -1.821415     -1.684635     -1.969660
   23 Atom       -1.762801     -1.781811     -1.928113
   24 Atom       -1.642269     -2.179872     -1.566784
   25 Atom       -1.711474     -1.954662     -1.878214
   26 Atom       -1.610453     -1.596022     -2.122288
   27 Atom       -1.529956     -1.876818     -1.558584
   28 Atom       -1.963144     -1.834298     -1.681693
   29 Atom       -1.953866     -1.782785     -1.705488
   30 Atom       -1.668667     -1.932873     -1.847668
   31 Atom       -1.713028     -1.693243     -2.134407
   32 Atom       -1.722445     -2.092382     -1.719718
   33 Atom       -1.707257     -1.696313     -2.122625
   34 Atom       -1.725462     -2.079456     -1.714049
   35 Atom       -1.844837     -1.855090     -1.774100
   36 Atom       -1.695111     -1.682142     -2.118026
   37 Atom       -1.718544     -2.072894     -1.704384
 -----------------------------------------------------
 -----------------------------------------------------
    Center         ---- Electric Field Gradient ----
                     XY            XZ            YZ
 -----------------------------------------------------
    1 Atom        0.008057      0.042195      0.107387
    2 Atom        0.002337      0.041361      0.112601
    3 Atom       -0.017539      0.030310      0.105717
    4 Atom       -0.038671      0.020573      0.058177
    5 Atom        0.196627      0.029464      0.081444
    6 Atom        0.013725      0.041022      0.075895
    7 Atom        0.024128      0.003632     -0.012158
    8 Atom       -0.022282      0.025534      0.033907
    9 Atom       -0.024035     -0.058852     -0.105444
   10 Atom       -0.249740      0.157458      0.111305
   11 Atom       -0.084219      0.003082      0.097030
   12 Atom        0.012936     -0.032728      0.077320
   13 Atom       -0.541190      0.070658     -0.034331
   14 Atom        0.144408     -0.176420      0.044375
   15 Atom       -0.074634      0.049398      0.070855
   16 Atom        0.041601     -0.053849      0.002967
   17 Atom        0.069447      0.013029     -0.095679
   18 Atom        0.153720      0.000887     -0.005187
   19 Atom       -0.214133     -0.071246     -0.060314
   20 Atom       -0.216035     -0.071923     -0.059695
   21 Atom       -0.177080     -0.068668     -0.037385
   22 Atom        0.029358      0.207508     -0.047209
   23 Atom        0.091875     -0.151357      0.162453
   24 Atom        0.018017     -0.002684     -0.061649
   25 Atom       -0.034809     -0.013536     -0.212576
   26 Atom       -0.002315     -0.027093      0.016161
   27 Atom        0.078172      0.030242     -0.121844
   28 Atom        0.218181     -0.016867      0.016372
   29 Atom       -0.191188      0.098510      0.071089
   30 Atom       -0.039893     -0.033364     -0.212017
   31 Atom        0.001569     -0.026627     -0.039627
   32 Atom        0.070386      0.013394     -0.110006
   33 Atom       -0.010885     -0.047257     -0.042564
   34 Atom        0.098197      0.029773     -0.097423
   35 Atom       -0.174080      0.129319      0.140548
   36 Atom       -0.005415     -0.057217     -0.053534
   37 Atom        0.110557      0.026580     -0.105533
 -----------------------------------------------------
 -----------------------------------------------------
    Center         ---- Electric Field Gradient ----
                   ----       Eigenvalues       ----
 -----------------------------------------------------
    1 Atom     -501.270388   -500.781557   -500.746545
    2 Atom     -501.294333   -500.785641   -500.761109
    3 Atom     -501.268552   -500.835317   -500.765902
    4 Atom     -501.016310   -500.728476   -500.589846
    5 Atom     -501.003200   -500.775252   -500.373628
    6 Atom     -501.162171   -500.776905   -500.650444
    7 Atom     -500.300975   -500.224770   -500.161361
    8 Atom     -501.293763   -500.878256   -500.766762
    9 Atom     -812.487329   -812.388705   -811.326654
   10 Atom     -500.984264   -500.380468   -500.318958
   11 Atom     -812.813704   -812.721689   -812.466651
   12 Atom     -500.437922   -500.190630   -500.187670
   13 Atom    -1238.684312  -1238.386234  -1236.348173
   14 Atom     -501.036450   -500.324776   -500.303531
   15 Atom     -500.396911   -500.215681   -500.180854
   16 Atom     -500.369436   -500.178823   -500.160325
   17 Atom       -2.152307     -1.688547     -1.667607
   18 Atom       -2.150694     -1.686922     -1.666594
   19 Atom       -2.153178     -1.694540     -1.669138
   20 Atom       -2.142414     -1.681314     -1.658040
   21 Atom       -2.129695     -1.680351     -1.667757
   22 Atom       -2.122915     -1.679791     -1.673005
   23 Atom       -2.120671     -1.680581     -1.671474
   24 Atom       -2.186583     -1.641940     -1.560402
   25 Atom       -2.135380     -1.717055     -1.691916
   26 Atom       -2.124204     -1.609728     -1.594832
   27 Atom       -1.935409     -1.519152     -1.510797
   28 Atom       -2.127434     -1.681368     -1.670333
   29 Atom       -2.113835     -1.672019     -1.656285
   30 Atom       -2.112617     -1.674040     -1.662552
   31 Atom       -2.139570     -1.712083     -1.689026
   32 Atom       -2.134806     -1.711481     -1.688258
   33 Atom       -2.132277     -1.704789     -1.689128
   34 Atom       -2.129789     -1.701527     -1.687651
   35 Atom       -2.127329     -1.678483     -1.668215
   36 Atom       -2.132059     -1.687739     -1.675480
   37 Atom       -2.132214     -1.687909     -1.675697
 -----------------------------------------------------
 -----------------------------------------------------
    Center         ---- Electric Field Gradient ----
                       ( tensor representation )
                   3XX-RR        3YY-RR        3ZZ-RR
 -----------------------------------------------------
    1 Atom        0.169439      0.140793     -0.310232
    2 Atom        0.166001      0.152697     -0.318699
    3 Atom        0.120321      0.165527     -0.285848
    4 Atom        0.177769      0.046461     -0.224230
    5 Atom       -0.213988      0.252243     -0.038255
    6 Atom        0.206146      0.074535     -0.280681
    7 Atom        0.063269     -0.065418      0.002149
    8 Atom        0.103518      0.206697     -0.310215
    9 Atom       -0.407059     -0.320596      0.727656
   10 Atom       -0.196235      0.016074      0.180161
   11 Atom       -0.109429      0.137346     -0.027917
   12 Atom        0.076948      0.056256     -0.133204
   13 Atom        1.321987     -0.743982     -0.578006
   14 Atom       -0.400108      0.197779      0.202329
   15 Atom       -0.019102     -0.002766      0.021868
   16 Atom       -0.107965      0.058329      0.049636
   17 Atom        0.136706     -0.284942      0.148236
   18 Atom       -0.257846      0.090787      0.167059
   19 Atom       -0.126490     -0.024209      0.150700
   20 Atom       -0.122768     -0.027596      0.150364
   21 Atom       -0.199272      0.055021      0.144251
   22 Atom        0.003822      0.140601     -0.144423
   23 Atom        0.061441      0.042430     -0.103872
   24 Atom        0.154039     -0.383564      0.229525
   25 Atom        0.136642     -0.106545     -0.030097
   26 Atom        0.165801      0.180232     -0.346033
   27 Atom        0.125163     -0.221699      0.096536
   28 Atom       -0.136765     -0.007920      0.144685
   29 Atom       -0.139819      0.031261      0.108558
   30 Atom        0.147735     -0.116470     -0.031265
   31 Atom        0.133865      0.153649     -0.287514
   32 Atom        0.122403     -0.247534      0.125131
   33 Atom        0.134808      0.145752     -0.280560
   34 Atom        0.114194     -0.239800      0.125606
   35 Atom       -0.020161     -0.030414      0.050576
   36 Atom        0.136649      0.149618     -0.286267
   37 Atom        0.113397     -0.240953      0.127556
 -----------------------------------------------------
 -----------------------------------------------------
    Center         ---- Electric Field Gradient ----
                       ( tensor representation )
                   ----       Eigenvalues       ----
 -----------------------------------------------------
    1 Atom       -0.337558      0.151273      0.186285
    2 Atom       -0.347305      0.161387      0.185918
    3 Atom       -0.311962      0.121274      0.190689
    4 Atom       -0.238099      0.049735      0.188365
    5 Atom       -0.285840     -0.057892      0.343732
    6 Atom       -0.298998      0.086269      0.212729
    7 Atom       -0.071940      0.004265      0.067674
    8 Atom       -0.314169      0.101337      0.212832
    9 Atom       -0.419766     -0.321142      0.740908
   10 Atom       -0.423034      0.180762      0.242272
   11 Atom       -0.146356     -0.054341      0.200697
   12 Atom       -0.165848      0.081444      0.084404
   13 Atom       -0.878073     -0.579994      1.458067
   14 Atom       -0.481531      0.230143      0.251388
   15 Atom       -0.132429      0.048801      0.083628
   16 Atom       -0.133241      0.057372      0.075869
   17 Atom       -0.316153      0.147607      0.168547
   18 Atom       -0.315958      0.147815      0.168143
   19 Atom       -0.314226      0.144412      0.169814
   20 Atom       -0.315158      0.145942      0.169216
   21 Atom       -0.303761      0.145583      0.158178
   22 Atom       -0.297678      0.145446      0.152232
   23 Atom       -0.296429      0.143661      0.152768
   24 Atom       -0.390275      0.154368      0.235906
   25 Atom       -0.287263      0.131062      0.156201
   26 Atom       -0.347949      0.166527      0.181423
   27 Atom       -0.280290      0.135967      0.144322
   28 Atom       -0.301055      0.145010      0.156046
   29 Atom       -0.299788      0.142027      0.157761
   30 Atom       -0.296214      0.142363      0.153851
   31 Atom       -0.292677      0.134810      0.157867
   32 Atom       -0.289958      0.133367      0.156591
   33 Atom       -0.290213      0.137276      0.152937
   34 Atom       -0.290133      0.138129      0.152004
   35 Atom       -0.302653      0.146193      0.156460
   36 Atom       -0.300300      0.144020      0.156279
   37 Atom       -0.300274      0.144031      0.156243
 -----------------------------------------------------

 Test job not archived.
 1|1|UNPC-NP-ALMACH|FOpt|RB3LYP|6-311++G(d,p)|C13H21N2O1(1+)|HERA|22-Au
 g-2018|0||# RB3LYP/6-311++G** Opt Test prop=EFG||C13N2H21O||1,1|C,3.73
 71894379,-0.3819062947,-2.7196267391|C,3.8904317209,-1.5192188657,-3.5
 052723224|C,2.8315832985,-2.4142078879,-3.6373562969|C,1.6097675656,-2
 .2010815442,-2.9981522478|C,1.4785035151,-1.0408165495,-2.2096384423|C
 ,2.5325795503,-0.1349741885,-2.0672968363|C,0.4812161628,-3.1927974755
 ,-3.1582689324|C,-0.1533936482,0.1094079858,-0.6921303498|N,0.21102155
 22,-0.8316253044,-1.5775331516|C,-1.6562906167,0.1109216911,-0.2928254
 229|N,-1.6415324635,0.7702058688,1.076023963|C,-2.4895018852,0.8946504
 538,-1.3066485343|O,0.5587399055,0.9786026913,-0.1946984986|C,-2.88586
 54797,1.444842631,1.6002090103|C,-2.6646395682,1.9332745059,3.02969205
 91|C,-3.905570712,2.6486768077,3.5749982977|H,4.5535188826,0.321441533
 4,-2.6083749645|H,4.8276637742,-1.7123231726,-4.0129863781|H,2.9521105
 875,-3.3012135117,-4.2491499296|H,2.4138829321,0.7449859251,-1.4545160
 34|H,0.7871226714,-4.0162041518,-3.8031444927|H,0.1787586732,-3.634370
 1511,-2.2014332022|H,-0.4059034497,-2.7454814109,-3.6247706389|H,-0.50
 5070604,-1.4902744986,-1.850907029|H,-2.0494541401,-0.8992736055,-0.16
 11190795|H,-1.3425160242,0.0728614205,1.7627680168|H,-0.8352250867,1.4
 265770865,1.0073152216|H,-3.5467683676,0.9146270143,-1.0393081086|H,-2
 .4070607367,0.4097339396,-2.280713034|H,-2.1224377085,1.9177293243,-1.
 4164694766|H,-3.1110749849,2.2724598391,0.9289329751|H,-3.6987212199,0
 .7181221388,1.545395882|H,-2.4176643539,1.0814229699,3.6744470146|H,-1
 .805632514,2.6129105278,3.0538516177|H,-3.7267851804,2.9858712552,4.59
 67921671|H,-4.1554499546,3.5271758104,2.9748169637|H,-4.7753985309,1.9
 869591922,3.5910849535||Version=EM64W-G09RevD.01|State=1-A|HF=-692.756
 844|RMSD=5.234e-009|RMSF=8.144e-006|Dipole=-3.0849043,0.2310666,1.7670
 079|Quadrupole=4.3152087,-7.6811341,3.3659254,-10.269512,-19.3709485,1
 4.386894|PG=C01 [X(C13H21N2O1)]||@


 IT IS A QUALITY OF REVOLUTIONS NOT TO GO BY OLD LINES OR OLD LAWS,
 BUT TO BREAK UP BOTH, AND MAKE NEW ONES.
                                              -- A. LINCOLN (1848)
 Job cpu time:       0 days  1 hours 57 minutes  1.0 seconds.
 File lengths (MBytes):  RWF=    111 Int=      0 D2E=      0 Chk=     18 Scr=      1
 Normal termination of Gaussian 09 at Wed Aug 22 23:28:25 2018.
