 Entering Link 1 = C:\G09W\l1.exe PID=     19760.
  
 Copyright (c) 1988,1990,1992,1993,1995,1998,2003,2009,2013,
            Gaussian, Inc.  All Rights Reserved.
  
 This is part of the Gaussian(R) 09 program.  It is based on
 the Gaussian(R) 03 system (copyright 2003, Gaussian, Inc.),
 the Gaussian(R) 98 system (copyright 1998, Gaussian, Inc.),
 the Gaussian(R) 94 system (copyright 1995, Gaussian, Inc.),
 the Gaussian 92(TM) system (copyright 1992, Gaussian, Inc.),
 the Gaussian 90(TM) system (copyright 1990, Gaussian, Inc.),
 the Gaussian 88(TM) system (copyright 1988, Gaussian, Inc.),
 the Gaussian 86(TM) system (copyright 1986, Carnegie Mellon
 University), and the Gaussian 82(TM) system (copyright 1983,
 Carnegie Mellon University). Gaussian is a federally registered
 trademark of Gaussian, Inc.
  
 This software contains proprietary and confidential information,
 including trade secrets, belonging to Gaussian, Inc.
  
 This software is provided under written license and may be
 used, copied, transmitted, or stored only in accord with that
 written license.
  
 The following legend is applicable only to US Government
 contracts under FAR:
  
                    RESTRICTED RIGHTS LEGEND
  
 Use, reproduction and disclosure by the US Government is
 subject to restrictions as set forth in subparagraphs (a)
 and (c) of the Commercial Computer Software - Restricted
 Rights clause in FAR 52.227-19.
  
 Gaussian, Inc.
 340 Quinnipiac St., Bldg. 40, Wallingford CT 06492
  
  
 ---------------------------------------------------------------
 Warning -- This program may not be used in any manner that
 competes with the business of Gaussian, Inc. or will provide
 assistance to any competitor of Gaussian, Inc.  The licensee
 of this program is prohibited from giving any competitor of
 Gaussian, Inc. access to this program.  By using this program,
 the user acknowledges that Gaussian, Inc. is engaged in the
 business of creating and licensing software in the field of
 computational chemistry and represents and warrants to the
 licensee that it is not a competitor of Gaussian, Inc. and that
 it will not use this program in any manner prohibited above.
 ---------------------------------------------------------------
  

 Cite this work as:
 Gaussian 09, Revision D.01,
 M. J. Frisch, G. W. Trucks, H. B. Schlegel, G. E. Scuseria, 
 M. A. Robb, J. R. Cheeseman, G. Scalmani, V. Barone, B. Mennucci, 
 G. A. Petersson, H. Nakatsuji, M. Caricato, X. Li, H. P. Hratchian, 
 A. F. Izmaylov, J. Bloino, G. Zheng, J. L. Sonnenberg, M. Hada, 
 M. Ehara, K. Toyota, R. Fukuda, J. Hasegawa, M. Ishida, T. Nakajima, 
 Y. Honda, O. Kitao, H. Nakai, T. Vreven, J. A. Montgomery, Jr., 
 J. E. Peralta, F. Ogliaro, M. Bearpark, J. J. Heyd, E. Brothers, 
 K. N. Kudin, V. N. Staroverov, T. Keith, R. Kobayashi, J. Normand, 
 K. Raghavachari, A. Rendell, J. C. Burant, S. S. Iyengar, J. Tomasi, 
 M. Cossi, N. Rega, J. M. Millam, M. Klene, J. E. Knox, J. B. Cross, 
 V. Bakken, C. Adamo, J. Jaramillo, R. Gomperts, R. E. Stratmann, 
 O. Yazyev, A. J. Austin, R. Cammi, C. Pomelli, J. W. Ochterski, 
 R. L. Martin, K. Morokuma, V. G. Zakrzewski, G. A. Voth, 
 P. Salvador, J. J. Dannenberg, S. Dapprich, A. D. Daniels, 
 O. Farkas, J. B. Foresman, J. V. Ortiz, J. Cioslowski, 
 and D. J. Fox, Gaussian, Inc., Wallingford CT, 2013.
 
 ******************************************
 Gaussian 09:  EM64W-G09RevD.01 13-Apr-2013
                04-Aug-2018 
 ******************************************
 %Chk=Anth_362.chk
 %Mem=64GB
 %NProcShared=20
 Will use up to   20 processors via shared memory.
 -------------------------------------
 # RB3LYP/6-311++G** Opt Test prop=EFG
 -------------------------------------
 1/14=-1,18=20,19=15,26=3,38=1/1,3;
 2/9=110,12=2,17=6,18=5,40=1/2;
 3/5=4,6=6,7=1111,11=2,16=1,25=1,30=1,71=1,74=-5,116=1/1,2,3;
 4//1;
 5/5=2,38=5/2;
 6/7=2,8=2,9=2,10=2,14=1,28=1/1,2;
 7//1,2,3,16;
 1/14=-1,18=20,19=15,26=3/3(2);
 2/9=110/2;
 99//99;
 2/9=110/2;
 3/5=4,6=6,7=1111,11=2,16=1,25=1,30=1,71=1,74=-5,116=1/1,2,3;
 4/5=5,16=3,69=1/1;
 5/5=2,38=5/2;
 7//1,2,3,16;
 1/14=-1,18=20,19=15,26=3/3(-5);
 2/9=110/2;
 6/7=2,8=2,9=2,10=2,14=1,19=2,28=1/1,2;
 99/9=1/99;
 -------
 C5NH14O
 -------
 Symbolic Z-matrix:
 Charge =  1 Multiplicity = 1
 N                     0.35338  -0.14359   0.70188 
 C                     0.32813   1.37359   0.77525 
 C                     1.77321  -0.61432   0.9831 
 C                    -0.56302  -0.71153   1.77183 
 C                    -0.04354  -0.64104  -0.68443 
 C                    -1.46543  -0.25597  -1.10173 
 O                    -1.67452  -0.71239  -2.426 
 H                    -0.70114   1.77845   0.66206 
 H                     0.96863   1.82416  -0.01645 
 H                     0.70423   1.7314    1.76052 
 H                     1.84217  -1.72556   0.95645 
 H                     2.48802  -0.21014   0.23075 
 H                     2.11937  -0.28111   1.98776 
 H                    -0.58538  -1.82416   1.73121 
 H                    -1.60522  -0.33904   1.66347 
 H                    -0.22067  -0.41511   2.78926 
 H                     0.67011  -0.23472  -1.44063 
 H                     0.04277  -1.75325  -0.72404 
 H                    -2.24744  -0.7308   -0.47042 
 H                    -1.6239    0.84375  -1.12457 
 H                    -2.48802  -0.35544  -2.78926 
 

 GradGradGradGradGradGradGradGradGradGradGradGradGradGradGradGradGradGrad
 Berny optimization.
 Initialization pass.
                           ----------------------------
                           !    Initial Parameters    !
                           ! (Angstroms and Degrees)  !
 --------------------------                            --------------------------
 ! Name  Definition              Value          Derivative Info.                !
 --------------------------------------------------------------------------------
 ! R1    R(1,2)                  1.5192         estimate D2E/DX2                !
 ! R2    R(1,3)                  1.522          estimate D2E/DX2                !
 ! R3    R(1,4)                  1.5189         estimate D2E/DX2                !
 ! R4    R(1,5)                  1.5254         estimate D2E/DX2                !
 ! R5    R(2,8)                  1.1118         estimate D2E/DX2                !
 ! R6    R(2,9)                  1.1136         estimate D2E/DX2                !
 ! R7    R(2,10)                 1.1137         estimate D2E/DX2                !
 ! R8    R(3,11)                 1.1137         estimate D2E/DX2                !
 ! R9    R(3,12)                 1.1137         estimate D2E/DX2                !
 ! R10   R(3,13)                 1.1136         estimate D2E/DX2                !
 ! R11   R(4,14)                 1.1136         estimate D2E/DX2                !
 ! R12   R(4,15)                 1.1121         estimate D2E/DX2                !
 ! R13   R(4,16)                 1.1137         estimate D2E/DX2                !
 ! R14   R(5,6)                  1.5311         estimate D2E/DX2                !
 ! R15   R(5,17)                 1.1163         estimate D2E/DX2                !
 ! R16   R(5,18)                 1.1163         estimate D2E/DX2                !
 ! R17   R(6,7)                  1.4162         estimate D2E/DX2                !
 ! R18   R(6,19)                 1.1116         estimate D2E/DX2                !
 ! R19   R(6,20)                 1.1113         estimate D2E/DX2                !
 ! R20   R(7,21)                 0.9598         estimate D2E/DX2                !
 ! A1    A(2,1,3)              108.3884         estimate D2E/DX2                !
 ! A2    A(2,1,4)              109.2305         estimate D2E/DX2                !
 ! A3    A(2,1,5)              111.4234         estimate D2E/DX2                !
 ! A4    A(3,1,4)              108.4823         estimate D2E/DX2                !
 ! A5    A(3,1,5)              108.0471         estimate D2E/DX2                !
 ! A6    A(4,1,5)              111.177          estimate D2E/DX2                !
 ! A7    A(1,2,8)              111.971          estimate D2E/DX2                !
 ! A8    A(1,2,9)              111.1115         estimate D2E/DX2                !
 ! A9    A(1,2,10)             110.9768         estimate D2E/DX2                !
 ! A10   A(8,2,9)              108.2254         estimate D2E/DX2                !
 ! A11   A(8,2,10)             106.6019         estimate D2E/DX2                !
 ! A12   A(9,2,10)             107.7433         estimate D2E/DX2                !
 ! A13   A(1,3,11)             111.219          estimate D2E/DX2                !
 ! A14   A(1,3,12)             111.2028         estimate D2E/DX2                !
 ! A15   A(1,3,13)             111.3528         estimate D2E/DX2                !
 ! A16   A(11,3,12)            107.8306         estimate D2E/DX2                !
 ! A17   A(11,3,13)            107.5111         estimate D2E/DX2                !
 ! A18   A(12,3,13)            107.5382         estimate D2E/DX2                !
 ! A19   A(1,4,14)             111.1008         estimate D2E/DX2                !
 ! A20   A(1,4,15)             111.8106         estimate D2E/DX2                !
 ! A21   A(1,4,16)             111.0116         estimate D2E/DX2                !
 ! A22   A(14,4,15)            108.1975         estimate D2E/DX2                !
 ! A23   A(14,4,16)            107.784          estimate D2E/DX2                !
 ! A24   A(15,4,16)            106.7361         estimate D2E/DX2                !
 ! A25   A(1,5,6)              114.0377         estimate D2E/DX2                !
 ! A26   A(1,5,17)             109.3039         estimate D2E/DX2                !
 ! A27   A(1,5,18)             109.6974         estimate D2E/DX2                !
 ! A28   A(6,5,17)             108.513          estimate D2E/DX2                !
 ! A29   A(6,5,18)             108.2241         estimate D2E/DX2                !
 ! A30   A(17,5,18)            106.8091         estimate D2E/DX2                !
 ! A31   A(5,6,7)              108.1141         estimate D2E/DX2                !
 ! A32   A(5,6,19)             113.0241         estimate D2E/DX2                !
 ! A33   A(5,6,20)             112.7624         estimate D2E/DX2                !
 ! A34   A(7,6,19)             106.8302         estimate D2E/DX2                !
 ! A35   A(7,6,20)             106.1794         estimate D2E/DX2                !
 ! A36   A(19,6,20)            109.516          estimate D2E/DX2                !
 ! A37   A(6,7,21)             111.0505         estimate D2E/DX2                !
 ! D1    D(3,1,2,8)           -175.2544         estimate D2E/DX2                !
 ! D2    D(3,1,2,9)             63.5956         estimate D2E/DX2                !
 ! D3    D(3,1,2,10)           -56.2653         estimate D2E/DX2                !
 ! D4    D(4,1,2,8)            -57.2347         estimate D2E/DX2                !
 ! D5    D(4,1,2,9)           -178.3847         estimate D2E/DX2                !
 ! D6    D(4,1,2,10)            61.7544         estimate D2E/DX2                !
 ! D7    D(5,1,2,8)             65.9861         estimate D2E/DX2                !
 ! D8    D(5,1,2,9)            -55.1639         estimate D2E/DX2                !
 ! D9    D(5,1,2,10)          -175.0249         estimate D2E/DX2                !
 ! D10   D(2,1,3,11)           179.1256         estimate D2E/DX2                !
 ! D11   D(2,1,3,12)           -60.6797         estimate D2E/DX2                !
 ! D12   D(2,1,3,13)            59.2346         estimate D2E/DX2                !
 ! D13   D(4,1,3,11)            60.6305         estimate D2E/DX2                !
 ! D14   D(4,1,3,12)          -179.1748         estimate D2E/DX2                !
 ! D15   D(4,1,3,13)           -59.2605         estimate D2E/DX2                !
 ! D16   D(5,1,3,11)           -60.001          estimate D2E/DX2                !
 ! D17   D(5,1,3,12)            60.1937         estimate D2E/DX2                !
 ! D18   D(5,1,3,13)          -179.892          estimate D2E/DX2                !
 ! D19   D(2,1,4,14)           178.7464         estimate D2E/DX2                !
 ! D20   D(2,1,4,15)            57.7507         estimate D2E/DX2                !
 ! D21   D(2,1,4,16)           -61.3253         estimate D2E/DX2                !
 ! D22   D(3,1,4,14)           -63.2928         estimate D2E/DX2                !
 ! D23   D(3,1,4,15)           175.7115         estimate D2E/DX2                !
 ! D24   D(3,1,4,16)            56.6355         estimate D2E/DX2                !
 ! D25   D(5,1,4,14)            55.3793         estimate D2E/DX2                !
 ! D26   D(5,1,4,15)           -65.6164         estimate D2E/DX2                !
 ! D27   D(5,1,4,16)           175.3076         estimate D2E/DX2                !
 ! D28   D(2,1,5,6)            -61.7633         estimate D2E/DX2                !
 ! D29   D(2,1,5,17)            59.8786         estimate D2E/DX2                !
 ! D30   D(2,1,5,18)           176.677          estimate D2E/DX2                !
 ! D31   D(3,1,5,6)            179.2734         estimate D2E/DX2                !
 ! D32   D(3,1,5,17)           -59.0847         estimate D2E/DX2                !
 ! D33   D(3,1,5,18)            57.7137         estimate D2E/DX2                !
 ! D34   D(4,1,5,6)             60.3401         estimate D2E/DX2                !
 ! D35   D(4,1,5,17)          -178.018          estimate D2E/DX2                !
 ! D36   D(4,1,5,18)           -61.2197         estimate D2E/DX2                !
 ! D37   D(1,5,6,7)            176.8058         estimate D2E/DX2                !
 ! D38   D(1,5,6,19)           -65.1585         estimate D2E/DX2                !
 ! D39   D(1,5,6,20)            59.7283         estimate D2E/DX2                !
 ! D40   D(17,5,6,7)            54.728          estimate D2E/DX2                !
 ! D41   D(17,5,6,19)          172.7637         estimate D2E/DX2                !
 ! D42   D(17,5,6,20)          -62.3495         estimate D2E/DX2                !
 ! D43   D(18,5,6,7)           -60.8233         estimate D2E/DX2                !
 ! D44   D(18,5,6,19)           57.2124         estimate D2E/DX2                !
 ! D45   D(18,5,6,20)         -177.9008         estimate D2E/DX2                !
 ! D46   D(5,6,7,21)          -169.5065         estimate D2E/DX2                !
 ! D47   D(19,6,7,21)           68.5635         estimate D2E/DX2                !
 ! D48   D(20,6,7,21)          -48.2558         estimate D2E/DX2                !
 --------------------------------------------------------------------------------
 Trust Radius=3.00D-01 FncErr=1.00D-07 GrdErr=1.00D-06
 Number of steps in this run=    115 maximum allowed number of steps=    126.
 GradGradGradGradGradGradGradGradGradGradGradGradGradGradGradGradGradGrad

                          Input orientation:                          
 ---------------------------------------------------------------------
 Center     Atomic      Atomic             Coordinates (Angstroms)
 Number     Number       Type             X           Y           Z
 ---------------------------------------------------------------------
      1          7           0        0.353384   -0.143588    0.701875
      2          6           0        0.328131    1.373591    0.775252
      3          6           0        1.773210   -0.614320    0.983101
      4          6           0       -0.563020   -0.711533    1.771826
      5          6           0       -0.043542   -0.641039   -0.684431
      6          6           0       -1.465431   -0.255967   -1.101732
      7          8           0       -1.674523   -0.712390   -2.425998
      8          1           0       -0.701142    1.778448    0.662057
      9          1           0        0.968631    1.824156   -0.016450
     10          1           0        0.704227    1.731398    1.760523
     11          1           0        1.842167   -1.725563    0.956448
     12          1           0        2.488024   -0.210140    0.230747
     13          1           0        2.119365   -0.281112    1.987759
     14          1           0       -0.585379   -1.824156    1.731213
     15          1           0       -1.605220   -0.339044    1.663466
     16          1           0       -0.220673   -0.415111    2.789260
     17          1           0        0.670108   -0.234723   -1.440629
     18          1           0        0.042774   -1.753249   -0.724035
     19          1           0       -2.247438   -0.730795   -0.470416
     20          1           0       -1.623900    0.843747   -1.124572
     21          1           0       -2.488024   -0.355440   -2.789260
 ---------------------------------------------------------------------
                    Distance matrix (angstroms):
                    1          2          3          4          5
     1  N    0.000000
     2  C    1.519162   0.000000
     3  C    1.522032   2.466423   0.000000
     4  C    1.518932   2.476904   2.467693   0.000000
     5  C    1.525402   2.515462   2.466164   2.511578   0.000000
     6  C    2.563926   3.065191   3.868300   3.046181   1.531074
     7  O    3.770879   4.313924   4.849581   4.342484   2.387100
     8  H    2.192677   1.111812   3.456997   2.729592   2.845942
     9  H    2.183240   1.113571   2.755470   3.460290   2.747340
    10  H    2.181605   1.113657   2.692490   2.752082   3.487896
    11  H    2.187219   3.453968   1.113699   2.734597   2.724807
    12  H    2.187025   2.733098   1.113713   3.454734   2.726179
    13  H    2.188858   2.723368   1.113638   2.725267   3.456633
    14  H    2.182916   3.460339   2.754327   1.113588   2.743846
    15  H    2.190660   2.731280   3.457233   1.112057   2.835958
    16  H    2.181844   2.748976   2.697678   1.113660   3.485534
    17  H    2.167705   2.759303   2.689869   3.473877   1.116344
    18  H    2.172719   3.479428   2.684377   2.771548   1.116257
    19  H    2.912620   3.551575   4.276902   2.804511   2.216081
    20  H    2.867122   2.774976   4.255420   3.454487   2.212656
    21  H    4.506274   4.860661   5.697003   4.963461   3.238420
                    6          7          8          9         10
     6  C    0.000000
     7  O    1.416235   0.000000
     8  H    2.798917   4.085074   0.000000
     9  H    3.380741   4.384775   1.802943   0.000000
    10  H    4.104819   5.399769   1.784350   1.798929   0.000000
    11  H    4.163655   4.983429   4.339721   3.782869   3.727200
    12  H    4.172218   4.963602   3.783027   2.551082   3.048232
    13  H    4.732478   5.836166   3.735577   3.126211   2.470718
    14  H    3.355486   4.438993   3.759688   4.333527   3.782315
    15  H    2.769975   4.107056   2.510767   3.758492   3.103175
    16  H    4.088345   5.422266   3.093145   3.781636   2.553672
    17  H    2.162367   2.587743   3.217837   2.521187   3.756883
    18  H    2.158516   2.632333   3.866206   3.762408   4.330510
    19  H    1.111556   2.037859   3.157503   4.132428   4.444301
    20  H    1.111308   2.029245   2.217474   2.985021   3.812069
    21  H    1.975688   0.959769   4.433736   4.938378   5.936824
                   11         12         13         14         15
    11  H    0.000000
    12  H    1.800078   0.000000
    13  H    1.796352   1.796674   0.000000
    14  H    2.550090   3.781832   3.124490   0.000000
    15  H    3.782431   4.338657   3.739125   1.802837   0.000000
    16  H    3.054798   3.731627   2.477123   1.799411   1.786104
    17  H    3.056518   2.469599   3.722411   3.763393   3.850118
    18  H    2.462236   3.045003   3.719307   2.535320   3.227386
    19  H    4.444139   4.815321   5.031283   2.967330   2.262601
    20  H    4.790159   4.455950   4.996393   4.043729   3.028613
    21  H    5.887115   5.822595   6.637279   5.119752   4.539425
                   16         17         18         19         20
    16  H    0.000000
    17  H    4.326429   0.000000
    18  H    3.768721   1.792478   0.000000
    19  H    3.851353   3.114398   2.520874   0.000000
    20  H    4.344174   2.554498   3.111691   1.815462   0.000000
    21  H    6.021987   3.436157   3.553022   2.361315   2.226195
                   21
    21  H    0.000000
 Stoichiometry    C5H14NO(1+)
 Framework group  C1[X(C5H14NO)]
 Deg. of freedom    57
 Full point group                 C1      NOp   1
 Largest Abelian subgroup         C1      NOp   1
 Largest concise Abelian subgroup C1      NOp   1
                         Standard orientation:                         
 ---------------------------------------------------------------------
 Center     Atomic      Atomic             Coordinates (Angstroms)
 Number     Number       Type             X           Y           Z
 ---------------------------------------------------------------------
      1          7           0        0.877482    0.023458    0.001851
      2          6           0        1.084029   -0.757061    1.288700
      3          6           0        1.904427    1.145673   -0.049131
      4          6           0        1.110292   -0.896537   -1.184134
      5          6           0       -0.511675    0.651298   -0.052121
      6          6           0       -1.656722   -0.364773   -0.026515
      7          8           0       -2.879231    0.349920   -0.006332
      8          1           0        0.418140   -1.645444    1.347809
      9          1           0        0.892392   -0.118219    2.180438
     10          1           0        2.128410   -1.136822    1.361382
     11          1           0        1.804967    1.740860   -0.985179
     12          1           0        1.783671    1.841600    0.811951
     13          1           0        2.943448    0.746373   -0.014749
     14          1           0        0.944632   -0.360396   -2.146001
     15          1           0        0.436947   -1.781216   -1.159214
     16          1           0        2.153153   -1.287263   -1.187734
     17          1           0       -0.635942    1.347236    0.811853
     18          1           0       -0.611024    1.265941   -0.978606
     19          1           0       -1.679791   -1.016567   -0.926620
     20          1           0       -1.651572   -0.995429    0.888500
     21          1           0       -3.618067   -0.235819    0.173075
 ---------------------------------------------------------------------
 Rotational constants (GHZ):      4.2063027      1.4217108      1.4029343
 Standard basis: 6-311++G(d,p) (5D, 7F)
 There are   259 symmetry adapted cartesian basis functions of A   symmetry.
 There are   252 symmetry adapted basis functions of A   symmetry.
   252 basis functions,   378 primitive gaussians,   259 cartesian basis functions
    29 alpha electrons       29 beta electrons
       nuclear repulsion energy       350.0703204355 Hartrees.
 NAtoms=   21 NActive=   21 NUniq=   21 SFac= 1.00D+00 NAtFMM=   60 NAOKFM=F Big=F
 Integral buffers will be    131072 words long.
 Raffenetti 2 integral format.
 Two-electron integral symmetry is turned on.
 One-electron integrals computed using PRISM.
 NBasis=   252 RedAO= T EigKep=  2.50D-05  NBF=   252
 NBsUse=   252 1.00D-06 EigRej= -1.00D+00 NBFU=   252
 ExpMin= 3.60D-02 ExpMax= 8.59D+03 ExpMxC= 1.30D+03 IAcc=3 IRadAn=         5 AccDes= 0.00D+00
 Harris functional with IExCor=  402 and IRadAn=       5 diagonalized for initial guess.
 HarFok:  IExCor=  402 AccDes= 0.00D+00 IRadAn=         5 IDoV= 1 UseB2=F ITyADJ=14
 ICtDFT=  3500011 ScaDFX=  1.000000  1.000000  1.000000  1.000000
 FoFCou: FMM=F IPFlag=           0 FMFlag=      100000 FMFlg1=           0
         NFxFlg=           0 DoJE=T BraDBF=F KetDBF=T FulRan=T
         wScrn=  0.000000 ICntrl=     500 IOpCl=  0 I1Cent=   200000004 NGrid=           0
         NMat0=    1 NMatS0=      1 NMatT0=    0 NMatD0=    1 NMtDS0=    0 NMtDT0=    0
 Petite list used in FoFCou.
 Keep R1 ints in memory in canonical form, NReq=517134184.
 Requested convergence on RMS density matrix=1.00D-08 within 128 cycles.
 Requested convergence on MAX density matrix=1.00D-06.
 Requested convergence on             energy=1.00D-06.
 No special actions if energy rises.
 SCF Done:  E(RB3LYP) =  -328.771515491     A.U. after   11 cycles
            NFock= 11  Conv=0.78D-08     -V/T= 2.0060

 **********************************************************************

            Population analysis using the SCF density.

 **********************************************************************

 Orbital symmetries:
       Occupied  (A) (A) (A) (A) (A) (A) (A) (A) (A) (A) (A) (A)
                 (A) (A) (A) (A) (A) (A) (A) (A) (A) (A) (A) (A)
                 (A) (A) (A) (A) (A)
       Virtual   (A) (A) (A) (A) (A) (A) (A) (A) (A) (A) (A) (A)
                 (A) (A) (A) (A) (A) (A) (A) (A) (A) (A) (A) (A)
                 (A) (A) (A) (A) (A) (A) (A) (A) (A) (A) (A) (A)
                 (A) (A) (A) (A) (A) (A) (A) (A) (A) (A) (A) (A)
                 (A) (A) (A) (A) (A) (A) (A) (A) (A) (A) (A) (A)
                 (A) (A) (A) (A) (A) (A) (A) (A) (A) (A) (A) (A)
                 (A) (A) (A) (A) (A) (A) (A) (A) (A) (A) (A) (A)
                 (A) (A) (A) (A) (A) (A) (A) (A) (A) (A) (A) (A)
                 (A) (A) (A) (A) (A) (A) (A) (A) (A) (A) (A) (A)
                 (A) (A) (A) (A) (A) (A) (A) (A) (A) (A) (A) (A)
                 (A) (A) (A) (A) (A) (A) (A) (A) (A) (A) (A) (A)
                 (A) (A) (A) (A) (A) (A) (A) (A) (A) (A) (A) (A)
                 (A) (A) (A) (A) (A) (A) (A) (A) (A) (A) (A) (A)
                 (A) (A) (A) (A) (A) (A) (A) (A) (A) (A) (A) (A)
                 (A) (A) (A) (A) (A) (A) (A) (A) (A) (A) (A) (A)
                 (A) (A) (A) (A) (A) (A) (A) (A) (A) (A) (A) (A)
                 (A) (A) (A) (A) (A) (A) (A) (A) (A) (A) (A) (A)
                 (A) (A) (A) (A) (A) (A) (A) (A) (A) (A) (A) (A)
                 (A) (A) (A) (A) (A) (A) (A)
 The electronic state is 1-A.
 Alpha  occ. eigenvalues --  -19.26713 -14.63004 -10.40180 -10.40114 -10.40097
 Alpha  occ. eigenvalues --  -10.40011 -10.38893  -1.18964  -1.17363  -0.93932
 Alpha  occ. eigenvalues --   -0.91576  -0.91499  -0.83588  -0.77640  -0.70874
 Alpha  occ. eigenvalues --   -0.69750  -0.68361  -0.65018  -0.64153  -0.60966
 Alpha  occ. eigenvalues --   -0.59322  -0.57499  -0.57307  -0.57132  -0.57047
 Alpha  occ. eigenvalues --   -0.56697  -0.54730  -0.48793  -0.42523
 Alpha virt. eigenvalues --   -0.15374  -0.13989  -0.12025  -0.11892  -0.11610
 Alpha virt. eigenvalues --   -0.11277  -0.10884  -0.10621  -0.08540  -0.08138
 Alpha virt. eigenvalues --   -0.07410  -0.06349  -0.05194  -0.04990  -0.04631
 Alpha virt. eigenvalues --   -0.04373  -0.03853  -0.02920  -0.02740  -0.01568
 Alpha virt. eigenvalues --   -0.01472  -0.01461  -0.01261  -0.00367  -0.00344
 Alpha virt. eigenvalues --    0.00445   0.00870   0.01413   0.02167   0.02583
 Alpha virt. eigenvalues --    0.02708   0.02867   0.03468   0.04252   0.04876
 Alpha virt. eigenvalues --    0.05161   0.05274   0.05419   0.05673   0.05879
 Alpha virt. eigenvalues --    0.05934   0.06624   0.07724   0.08453   0.09646
 Alpha virt. eigenvalues --    0.10060   0.10422   0.11536   0.11785   0.13592
 Alpha virt. eigenvalues --    0.14539   0.15213   0.16055   0.16237   0.17743
 Alpha virt. eigenvalues --    0.18517   0.19971   0.21083   0.21729   0.24647
 Alpha virt. eigenvalues --    0.26204   0.26659   0.27049   0.29723   0.32734
 Alpha virt. eigenvalues --    0.33353   0.37138   0.37522   0.38410   0.40563
 Alpha virt. eigenvalues --    0.41063   0.42533   0.43398   0.43616   0.44102
 Alpha virt. eigenvalues --    0.44686   0.46340   0.47172   0.47314   0.49254
 Alpha virt. eigenvalues --    0.49514   0.49762   0.51761   0.52836   0.54689
 Alpha virt. eigenvalues --    0.55428   0.57364   0.58576   0.60823   0.61274
 Alpha virt. eigenvalues --    0.62101   0.64705   0.67094   0.67790   0.71532
 Alpha virt. eigenvalues --    0.77641   0.80807   0.82397   0.85678   0.85788
 Alpha virt. eigenvalues --    0.90987   0.92213   0.95277   0.96565   1.00756
 Alpha virt. eigenvalues --    1.03276   1.07247   1.11077   1.20608   1.22873
 Alpha virt. eigenvalues --    1.24922   1.25901   1.26197   1.27522   1.28604
 Alpha virt. eigenvalues --    1.30737   1.31289   1.32254   1.35695   1.37108
 Alpha virt. eigenvalues --    1.38044   1.39371   1.40349   1.40695   1.41424
 Alpha virt. eigenvalues --    1.44086   1.45028   1.48042   1.48282   1.49329
 Alpha virt. eigenvalues --    1.50050   1.51227   1.53813   1.55399   1.56688
 Alpha virt. eigenvalues --    1.61458   1.62841   1.62877   1.64398   1.64571
 Alpha virt. eigenvalues --    1.67154   1.69486   1.75462   1.81441   1.82085
 Alpha virt. eigenvalues --    1.83709   1.86025   1.88031   1.91753   1.93364
 Alpha virt. eigenvalues --    1.96235   1.96673   1.98782   1.99447   2.01539
 Alpha virt. eigenvalues --    2.01961   2.09041   2.14310   2.20437   2.22551
 Alpha virt. eigenvalues --    2.23405   2.24262   2.24763   2.27868   2.28250
 Alpha virt. eigenvalues --    2.28970   2.30039   2.33536   2.34330   2.34603
 Alpha virt. eigenvalues --    2.36227   2.39930   2.41118   2.44641   2.45918
 Alpha virt. eigenvalues --    2.47400   2.49786   2.50979   2.58402   2.59696
 Alpha virt. eigenvalues --    2.61367   2.61634   2.63029   2.64213   2.68664
 Alpha virt. eigenvalues --    2.71726   2.77099   2.82611   2.85981   2.93773
 Alpha virt. eigenvalues --    2.97274   3.00829   3.04888   3.07944   3.16250
 Alpha virt. eigenvalues --    3.33437   3.33702   3.37284   3.46987   3.51946
 Alpha virt. eigenvalues --    3.52846   3.53280   3.55461   3.56231   3.57379
 Alpha virt. eigenvalues --    3.58651   3.66046   3.73336   3.83728   4.01292
 Alpha virt. eigenvalues --    4.47401   4.48482   4.50316   4.92221   5.24175
 Alpha virt. eigenvalues --    5.53942  23.63250  23.67688  23.70047  23.70125
 Alpha virt. eigenvalues --   23.71346  35.21758  49.77964
          Condensed to atoms (all electrons):
               1          2          3          4          5          6
     1  N    6.621679   0.241768   0.305898   0.223675   0.080172  -0.062475
     2  C    0.241768   5.499624  -0.168853  -0.162129  -0.165025  -0.007543
     3  C    0.305898  -0.168853   5.508674  -0.187605  -0.229561  -0.061725
     4  C    0.223675  -0.162129  -0.187605   5.514804  -0.167675   0.028050
     5  C    0.080172  -0.165025  -0.229561  -0.167675   6.457423  -0.260628
     6  C   -0.062475  -0.007543  -0.061725   0.028050  -0.260628   5.682390
     7  O    0.014368  -0.013518   0.014567  -0.014034   0.007364   0.112850
     8  H   -0.016247   0.370690   0.014628  -0.003832  -0.018945   0.013322
     9  H    0.003603   0.375289  -0.013249   0.012853  -0.042251   0.015372
    10  H   -0.020520   0.378893  -0.009557  -0.014077   0.036081  -0.007684
    11  H   -0.010178   0.018891   0.375434  -0.014573  -0.012641  -0.000469
    12  H   -0.009273  -0.015403   0.380214   0.018501  -0.010360  -0.006344
    13  H   -0.003079  -0.022759   0.390344  -0.026305   0.022280  -0.002572
    14  H    0.007388   0.013606  -0.000117   0.368723  -0.019016  -0.016604
    15  H   -0.022489  -0.005285   0.010632   0.379211  -0.032593   0.030714
    16  H   -0.022699  -0.013194  -0.016460   0.382836   0.030486   0.002025
    17  H    0.000257  -0.029074  -0.015007   0.010529   0.303768   0.035958
    18  H    0.007059   0.010309   0.009206  -0.025544   0.399040  -0.076872
    19  H   -0.020054   0.009186  -0.006420  -0.017721  -0.090326   0.458163
    20  H    0.005439  -0.016230   0.010110   0.009330   0.026897   0.314036
    21  H   -0.000699   0.000715  -0.002473   0.002030  -0.070726   0.101108
               7          8          9         10         11         12
     1  N    0.014368  -0.016247   0.003603  -0.020520  -0.010178  -0.009273
     2  C   -0.013518   0.370690   0.375289   0.378893   0.018891  -0.015403
     3  C    0.014567   0.014628  -0.013249  -0.009557   0.375434   0.380214
     4  C   -0.014034  -0.003832   0.012853  -0.014077  -0.014573   0.018501
     5  C    0.007364  -0.018945  -0.042251   0.036081  -0.012641  -0.010360
     6  C    0.112850   0.013322   0.015372  -0.007684  -0.000469  -0.006344
     7  O    8.008159  -0.001486   0.005290  -0.000806   0.000073   0.000253
     8  H   -0.001486   0.510052  -0.033908  -0.031130  -0.001581  -0.001704
     9  H    0.005290  -0.033908   0.484538  -0.034254  -0.000551  -0.000354
    10  H   -0.000806  -0.031130  -0.034254   0.489801  -0.000771   0.004131
    11  H    0.000073  -0.001581  -0.000551  -0.000771   0.486205  -0.029652
    12  H    0.000253  -0.001704  -0.000354   0.004131  -0.029652   0.486009
    13  H    0.000757  -0.000226   0.003546  -0.002913  -0.030247  -0.029964
    14  H    0.004467   0.001365  -0.004404   0.002850  -0.000735  -0.000750
    15  H   -0.001096  -0.007399   0.002404   0.002816  -0.001303  -0.001686
    16  H   -0.000570   0.004081   0.001877  -0.007219   0.004073  -0.000344
    17  H    0.007113   0.002471   0.005738  -0.005980   0.001569   0.001003
    18  H    0.010577   0.000750  -0.004298   0.001090   0.001360   0.000339
    19  H   -0.069466  -0.007831   0.008048  -0.004140   0.000952  -0.000283
    20  H   -0.046469   0.007673  -0.014339   0.006638  -0.000455   0.000583
    21  H    0.227598   0.001404  -0.000446   0.000129  -0.000025  -0.000099
              13         14         15         16         17         18
     1  N   -0.003079   0.007388  -0.022489  -0.022699   0.000257   0.007059
     2  C   -0.022759   0.013606  -0.005285  -0.013194  -0.029074   0.010309
     3  C    0.390344  -0.000117   0.010632  -0.016460  -0.015007   0.009206
     4  C   -0.026305   0.368723   0.379211   0.382836   0.010529  -0.025544
     5  C    0.022280  -0.019016  -0.032593   0.030486   0.303768   0.399040
     6  C   -0.002572  -0.016604   0.030714   0.002025   0.035958  -0.076872
     7  O    0.000757   0.004467  -0.001096  -0.000570   0.007113   0.010577
     8  H   -0.000226   0.001365  -0.007399   0.004081   0.002471   0.000750
     9  H    0.003546  -0.004404   0.002404   0.001877   0.005738  -0.004298
    10  H   -0.002913   0.002850   0.002816  -0.007219  -0.005980   0.001090
    11  H   -0.030247  -0.000735  -0.001303   0.004073   0.001569   0.001360
    12  H   -0.029964  -0.000750  -0.001686  -0.000344   0.001003   0.000339
    13  H    0.493927   0.004466  -0.000425  -0.003085  -0.001077   0.000849
    14  H    0.004466   0.480667  -0.030256  -0.032364  -0.004206   0.000613
    15  H   -0.000425  -0.030256   0.501014  -0.032458   0.001158   0.002342
    16  H   -0.003085  -0.032364  -0.032458   0.488518  -0.000037  -0.003235
    17  H   -0.001077  -0.004206   0.001158  -0.000037   0.486848  -0.043376
    18  H    0.000849   0.000613   0.002342  -0.003235  -0.043376   0.478770
    19  H   -0.000192  -0.015000   0.008207   0.004877   0.026461  -0.030862
    20  H    0.000492   0.008015  -0.010328  -0.002954  -0.031371   0.020528
    21  H   -0.000018  -0.000986   0.001261   0.000231   0.003649  -0.002030
              19         20         21
     1  N   -0.020054   0.005439  -0.000699
     2  C    0.009186  -0.016230   0.000715
     3  C   -0.006420   0.010110  -0.002473
     4  C   -0.017721   0.009330   0.002030
     5  C   -0.090326   0.026897  -0.070726
     6  C    0.458163   0.314036   0.101108
     7  O   -0.069466  -0.046469   0.227598
     8  H   -0.007831   0.007673   0.001404
     9  H    0.008048  -0.014339  -0.000446
    10  H   -0.004140   0.006638   0.000129
    11  H    0.000952  -0.000455  -0.000025
    12  H   -0.000283   0.000583  -0.000099
    13  H   -0.000192   0.000492  -0.000018
    14  H   -0.015000   0.008015  -0.000986
    15  H    0.008207  -0.010328   0.001261
    16  H    0.004877  -0.002954   0.000231
    17  H    0.026461  -0.031371   0.003649
    18  H   -0.030862   0.020528  -0.002030
    19  H    0.662637  -0.102605   0.004733
    20  H   -0.102605   0.660369  -0.015574
    21  H    0.004733  -0.015574   0.472378
 Mulliken charges:
               1
     1  N   -0.323592
     2  C   -0.299958
     3  C   -0.308681
     4  C   -0.317046
     5  C   -0.243767
     6  C   -0.291071
     7  O   -0.265990
     8  H    0.197852
     9  H    0.229494
    10  H    0.216623
    11  H    0.214622
    12  H    0.215185
    13  H    0.206200
    14  H    0.232278
    15  H    0.205558
    16  H    0.215612
    17  H    0.243607
    18  H    0.243385
    19  H    0.181636
    20  H    0.170215
    21  H    0.277839
 Sum of Mulliken charges =   1.00000
 Mulliken charges with hydrogens summed into heavy atoms:
               1
     1  N   -0.323592
     2  C    0.344012
     3  C    0.327326
     4  C    0.336402
     5  C    0.243224
     6  C    0.060780
     7  O    0.011849
 Electronic spatial extent (au):  <R**2>=            979.8897
 Charge=              1.0000 electrons
 Dipole moment (field-independent basis, Debye):
    X=              3.6260    Y=             -1.6091    Z=              0.2988  Tot=              3.9782
 Quadrupole moment (field-independent basis, Debye-Ang):
   XX=            -28.7355   YY=            -37.8544   ZZ=            -37.4604
   XY=              5.9605   XZ=             -1.2340   YZ=             -0.1300
 Traceless Quadrupole moment (field-independent basis, Debye-Ang):
   XX=              5.9480   YY=             -3.1710   ZZ=             -2.7770
   XY=              5.9605   XZ=             -1.2340   YZ=             -0.1300
 Octapole moment (field-independent basis, Debye-Ang**2):
  XXX=            -14.8323  YYY=              1.1324  ZZZ=              0.4936  XYY=              6.3137
  XXY=            -16.1593  XXZ=              4.9523  XZZ=              4.9524  YZZ=             -2.3902
  YYZ=             -0.2462  XYZ=              0.3847
 Hexadecapole moment (field-independent basis, Debye-Ang**3):
 XXXX=           -573.9681 YYYY=           -217.2760 ZZZZ=           -194.9360 XXXY=             59.6275
 XXXZ=            -19.5684 YYYX=              6.7463 YYYZ=              0.8180 ZZZX=             -0.1126
 ZZZY=             -0.6912 XXYY=           -156.6712 XXZZ=           -162.0474 YYZZ=            -63.6531
 XXYZ=             -1.7076 YYXZ=             -0.8054 ZZXY=             -1.8177
 N-N= 3.500703204355D+02 E-N=-1.453759758737D+03  KE= 3.268128652980D+02

 **********************************************************************

            Electrostatic Properties Using The SCF Density

 **********************************************************************

       Atomic Center    1 is at   0.877482  0.023458  0.001851
       Atomic Center    2 is at   1.084029 -0.757061  1.288700
       Atomic Center    3 is at   1.904427  1.145673 -0.049131
       Atomic Center    4 is at   1.110292 -0.896537 -1.184134
       Atomic Center    5 is at  -0.511675  0.651298 -0.052121
       Atomic Center    6 is at  -1.656722 -0.364773 -0.026515
       Atomic Center    7 is at  -2.879231  0.349920 -0.006332
       Atomic Center    8 is at   0.418140 -1.645444  1.347809
       Atomic Center    9 is at   0.892392 -0.118219  2.180438
       Atomic Center   10 is at   2.128410 -1.136822  1.361382
       Atomic Center   11 is at   1.804967  1.740860 -0.985179
       Atomic Center   12 is at   1.783671  1.841600  0.811951
       Atomic Center   13 is at   2.943448  0.746373 -0.014749
       Atomic Center   14 is at   0.944632 -0.360396 -2.146001
       Atomic Center   15 is at   0.436947 -1.781216 -1.159214
       Atomic Center   16 is at   2.153153 -1.287263 -1.187734
       Atomic Center   17 is at  -0.635942  1.347236  0.811853
       Atomic Center   18 is at  -0.611024  1.265941 -0.978606
       Atomic Center   19 is at  -1.679791 -1.016567 -0.926620
       Atomic Center   20 is at  -1.651572 -0.995429  0.888500
       Atomic Center   21 is at  -3.618067 -0.235819  0.173075
 -----------------------------------------------------------------

              Electrostatic Properties (Atomic Units)

 -----------------------------------------------------------------
    Center     Electric         -------- Electric Field --------
               Potential          X             Y             Z
 -----------------------------------------------------------------
    1 Atom    -18.079869      0.000359      0.000498     -0.000104
    2 Atom    -14.544479      0.001872     -0.006459      0.010955
    3 Atom    -14.545779      0.008542      0.009438     -0.000432
    4 Atom    -14.544661      0.002086     -0.007723     -0.010107
    5 Atom    -14.544647     -0.013210      0.005907     -0.000198
    6 Atom    -14.555029      0.003415     -0.009577      0.000080
    7 Atom    -22.226394     -0.004830      0.049648     -0.007772
    8 Atom     -0.913215     -0.004057     -0.000055     -0.004418
    9 Atom     -0.912771     -0.001902      0.005321     -0.001180
   10 Atom     -0.912854      0.003903      0.002440     -0.004945
   11 Atom     -0.914556     -0.004749     -0.001833     -0.003430
   12 Atom     -0.914498     -0.004804     -0.001432      0.003508
   13 Atom     -0.914228      0.000102     -0.006473      0.000389
   14 Atom     -0.912939     -0.001865      0.005396      0.000523
   15 Atom     -0.913422     -0.004058      0.000403      0.004232
   16 Atom     -0.913155      0.003761      0.002846      0.004638
   17 Atom     -0.922064      0.003786      0.000248      0.003104
   18 Atom     -0.921575      0.005032      0.000406     -0.003000
   19 Atom     -0.960339      0.007500     -0.006312     -0.005539
   20 Atom     -0.956579      0.008765     -0.006907      0.004858
   21 Atom     -0.859107     -0.021413     -0.017737      0.004815
 -----------------------------------------------------------------
 -----------------------------------------------------
    Center         ---- Electric Field Gradient ----
                     XX            YY            ZZ
 -----------------------------------------------------
    1 Atom     -812.744218   -812.769389   -812.774218
    2 Atom     -500.229413   -500.390520   -500.702956
    3 Atom     -500.567907   -500.621476   -500.252824
    4 Atom     -500.234564   -500.461648   -500.631825
    5 Atom     -500.902391   -500.511670   -500.314800
    6 Atom     -500.571150   -500.327130   -500.095862
    7 Atom    -1238.346860  -1236.441257  -1234.561042
    8 Atom       -1.783704     -1.883183     -1.651324
    9 Atom       -1.636501     -1.775512     -1.879046
   10 Atom       -1.978371     -1.672671     -1.645781
   11 Atom       -1.643121     -1.740322     -1.909574
   12 Atom       -1.644983     -1.780162     -1.867433
   13 Atom       -1.968081     -1.705483     -1.626068
   14 Atom       -1.633591     -1.738878     -1.918499
   15 Atom       -1.786456     -1.880582     -1.649292
   16 Atom       -1.977028     -1.677315     -1.643158
   17 Atom       -1.656815     -1.781320     -1.872137
   18 Atom       -1.656916     -1.749881     -1.906238
   19 Atom       -1.709318     -1.831417     -1.950810
   20 Atom       -1.714149     -1.824048     -1.961619
   21 Atom       -1.956598     -1.797540     -1.509631
 -----------------------------------------------------
 -----------------------------------------------------
    Center         ---- Electric Field Gradient ----
                     XY            XZ            YZ
 -----------------------------------------------------
    1 Atom        0.004232     -0.002945      0.001335
    2 Atom        0.054641     -0.086604      0.288823
    3 Atom       -0.340634      0.015717      0.016741
    4 Atom        0.069925      0.087909     -0.314907
    5 Atom        0.257294     -0.024514      0.011171
    6 Atom        0.155091      0.005041      0.003953
    7 Atom        0.119275      0.407806      0.282645
    8 Atom       -0.190985      0.000159      0.016509
    9 Atom        0.045254      0.052143     -0.172267
   10 Atom        0.121174     -0.012306      0.015574
   11 Atom        0.010317     -0.041086      0.170622
   12 Atom        0.019349      0.045193     -0.184683
   13 Atom        0.130599     -0.011306      0.006028
   14 Atom        0.034825     -0.049185      0.157620
   15 Atom       -0.190213      0.018138      0.005014
   16 Atom        0.123630     -0.009706     -0.009079
   17 Atom        0.023069      0.021340     -0.183537
   18 Atom        0.016043     -0.016586      0.173319
   19 Atom        0.001948      0.001946     -0.190125
   20 Atom        0.008229     -0.009230      0.188442
   21 Atom       -0.318510      0.105599      0.088390
 -----------------------------------------------------
 -----------------------------------------------------
    Center         ---- Electric Field Gradient ----
                   ----       Eigenvalues       ----
 -----------------------------------------------------
    1 Atom     -812.775090   -812.769446   -812.743291
    2 Atom     -500.890943   -500.219487   -500.212459
    3 Atom     -500.937148   -500.253037   -500.252022
    4 Atom     -500.892119   -500.221250   -500.214667
    5 Atom     -501.031100   -500.383985   -500.313776
    6 Atom     -500.646486   -500.252021   -500.095635
    7 Atom    -1238.394363  -1236.481067  -1234.473729
    8 Atom       -2.031256     -1.655883     -1.631072
    9 Atom       -2.019533     -1.648474     -1.623052
   10 Atom       -2.021323     -1.650652     -1.624848
   11 Atom       -2.019733     -1.649637     -1.623646
   12 Atom       -2.019582     -1.649503     -1.623493
   13 Atom       -2.022382     -1.651653     -1.625596
   14 Atom       -2.019439     -1.648450     -1.623078
   15 Atom       -2.030069     -1.655620     -1.630641
   16 Atom       -2.021540     -1.650850     -1.625111
   17 Atom       -2.018461     -1.655548     -1.636264
   18 Atom       -2.019608     -1.656574     -1.636854
   19 Atom       -2.090410     -1.709308     -1.691827
   20 Atom       -2.093834     -1.713849     -1.692133
   21 Atom       -2.231596     -1.549098     -1.483074
 -----------------------------------------------------
 -----------------------------------------------------
    Center         ---- Electric Field Gradient ----
                       ( tensor representation )
                   3XX-RR        3YY-RR        3ZZ-RR
 -----------------------------------------------------
    1 Atom        0.018390     -0.006781     -0.011610
    2 Atom        0.211550      0.050443     -0.261993
    3 Atom       -0.087172     -0.140740      0.227912
    4 Atom        0.208115     -0.018969     -0.189146
    5 Atom       -0.326104      0.064617      0.261488
    6 Atom       -0.239770      0.004251      0.235519
    7 Atom       -1.897141      0.008463      1.888678
    8 Atom       -0.010967     -0.110446      0.121413
    9 Atom        0.127186     -0.011826     -0.115360
   10 Atom       -0.212763      0.092937      0.119827
   11 Atom        0.121218      0.024017     -0.145235
   12 Atom        0.119210     -0.015969     -0.103240
   13 Atom       -0.201537      0.061061      0.140476
   14 Atom        0.130065      0.024778     -0.154843
   15 Atom       -0.014346     -0.108472      0.122818
   16 Atom       -0.211194      0.088518      0.122676
   17 Atom        0.113276     -0.011230     -0.102046
   18 Atom        0.114096      0.021130     -0.135226
   19 Atom        0.121198     -0.000902     -0.120295
   20 Atom        0.119123      0.009224     -0.128347
   21 Atom       -0.202009     -0.042950      0.244959
 -----------------------------------------------------
 -----------------------------------------------------
    Center         ---- Electric Field Gradient ----
                       ( tensor representation )
                   ----       Eigenvalues       ----
 -----------------------------------------------------
    1 Atom       -0.012481     -0.006837      0.019318
    2 Atom       -0.449980      0.221476      0.228504
    3 Atom       -0.456412      0.227698      0.228714
    4 Atom       -0.449440      0.221428      0.228012
    5 Atom       -0.454813      0.192302      0.262511
    6 Atom       -0.315105      0.079360      0.235746
    7 Atom       -1.944643     -0.031347      1.975991
    8 Atom       -0.258519      0.116853      0.141665
    9 Atom       -0.255847      0.115212      0.140635
   10 Atom       -0.255715      0.114955      0.140760
   11 Atom       -0.255394      0.114702      0.140693
   12 Atom       -0.255389      0.114690      0.140700
   13 Atom       -0.255839      0.114891      0.140947
   14 Atom       -0.255783      0.115206      0.140577
   15 Atom       -0.257959      0.116490      0.141469
   16 Atom       -0.255706      0.114983      0.140723
   17 Atom       -0.248370      0.114543      0.133827
   18 Atom       -0.248596      0.114438      0.134158
   19 Atom       -0.259895      0.121207      0.138688
   20 Atom       -0.260562      0.119423      0.141139
   21 Atom       -0.477006      0.205491      0.271515
 -----------------------------------------------------
 Calling FoFJK, ICntrl=      2127 FMM=F ISym2X=0 I1Cent= 0 IOpClX= 0 NMat=1 NMatS=1 NMatT=0.
 ***** Axes restored to original set *****
 -------------------------------------------------------------------
 Center     Atomic                   Forces (Hartrees/Bohr)
 Number     Number              X              Y              Z
 -------------------------------------------------------------------
      1        7           0.005876275   -0.000584459    0.006316854
      2        6          -0.000599340    0.022641665    0.001653041
      3        6           0.020743905   -0.007035278    0.003900063
      4        6          -0.013609560   -0.007801368    0.016259004
      5        6          -0.000079100   -0.008662540   -0.019867608
      6        6          -0.026585451    0.011353198   -0.005937726
      7        8           0.017469864   -0.010203597   -0.002964534
      8        1           0.012041321   -0.011159187    0.000108794
      9        1          -0.007529214   -0.011308419    0.008503256
     10        1          -0.003211495   -0.011167930   -0.011487471
     11        1          -0.006949445    0.014675781   -0.001312574
     12        1          -0.014291449   -0.002836299    0.007090261
     13        1          -0.010487657   -0.001465751   -0.012476500
     14        1           0.003684696    0.015074897   -0.004055878
     15        1           0.015720461   -0.002529524   -0.003688323
     16        1           0.000981644   -0.001269147   -0.016192327
     17        1          -0.007516550   -0.002959132    0.013966688
     18        1           0.001118848    0.015073070    0.006131075
     19        1           0.010793630    0.006726585    0.002472568
     20        1           0.004769714   -0.008203451    0.010034094
     21        1          -0.002341094    0.001640883    0.001547243
 -------------------------------------------------------------------
 Cartesian Forces:  Max     0.026585451 RMS     0.010257507

 GradGradGradGradGradGradGradGradGradGradGradGradGradGradGradGradGradGrad
 Berny optimization.
 FormGI is forming the generalized inverse of G from B-inverse, IUseBI=4.
 Internal  Forces:  Max     0.023573205 RMS     0.006969088
 Search for a local minimum.
 Step number   1 out of a maximum of  115
 All quantities printed in internal units (Hartrees-Bohrs-Radians)
 Mixed Optimization -- RFO/linear search
 Second derivative matrix not updated -- first step.
 ITU=  0
     Eigenvalues ---    0.00230   0.00230   0.00230   0.00230   0.00355
     Eigenvalues ---    0.01477   0.03362   0.04313   0.04756   0.04865
     Eigenvalues ---    0.05048   0.05263   0.05303   0.05320   0.05323
     Eigenvalues ---    0.05384   0.05385   0.05427   0.05429   0.08519
     Eigenvalues ---    0.11620   0.12343   0.13661   0.14227   0.14521
     Eigenvalues ---    0.16000   0.16000   0.16000   0.16000   0.16000
     Eigenvalues ---    0.16000   0.16000   0.16000   0.16000   0.16000
     Eigenvalues ---    0.21949   0.21990   0.29324   0.29852   0.30172
     Eigenvalues ---    0.30447   0.30470   0.31937   0.31946   0.32210
     Eigenvalues ---    0.32211   0.32216   0.32216   0.32218   0.32223
     Eigenvalues ---    0.32225   0.32383   0.32409   0.32436   0.32462
     Eigenvalues ---    0.43032   0.55523
 RFO step:  Lambda=-2.00108854D-02 EMin= 2.30000000D-03
 Linear search not attempted -- first point.
 Iteration  1 RMS(Cart)=  0.06200032 RMS(Int)=  0.00208895
 Iteration  2 RMS(Cart)=  0.00258624 RMS(Int)=  0.00088455
 Iteration  3 RMS(Cart)=  0.00000217 RMS(Int)=  0.00088455
 Iteration  4 RMS(Cart)=  0.00000001 RMS(Int)=  0.00088455
 Variable       Old X    -DE/DX   Delta X   Delta X   Delta X     New X
                                 (Linear)    (Quad)   (Total)
    R1        2.87080  -0.01105   0.00000  -0.03406  -0.03406   2.83674
    R2        2.87622  -0.01180   0.00000  -0.03667  -0.03667   2.83955
    R3        2.87036  -0.01079   0.00000  -0.03323  -0.03323   2.83714
    R4        2.88259  -0.00582   0.00000  -0.01827  -0.01827   2.86432
    R5        2.10102  -0.01522   0.00000  -0.04424  -0.04424   2.05678
    R6        2.10434  -0.01495   0.00000  -0.04369  -0.04369   2.06066
    R7        2.10451  -0.01483   0.00000  -0.04335  -0.04335   2.06115
    R8        2.10459  -0.01504   0.00000  -0.04396  -0.04396   2.06063
    R9        2.10461  -0.01500   0.00000  -0.04384  -0.04384   2.06078
   R10        2.10447  -0.01495   0.00000  -0.04369  -0.04369   2.06078
   R11        2.10438  -0.01499   0.00000  -0.04379  -0.04379   2.06058
   R12        2.10148  -0.01522   0.00000  -0.04425  -0.04425   2.05723
   R13        2.10451  -0.01483   0.00000  -0.04335  -0.04335   2.06117
   R14        2.89331  -0.00490   0.00000  -0.01564  -0.01564   2.87767
   R15        2.10958  -0.01534   0.00000  -0.04520  -0.04520   2.06438
   R16        2.10942  -0.01515   0.00000  -0.04463  -0.04463   2.06479
   R17        2.67630   0.00186   0.00000   0.00412   0.00412   2.68042
   R18        2.10054  -0.00907   0.00000  -0.02633  -0.02633   2.07420
   R19        2.10007  -0.00900   0.00000  -0.02612  -0.02612   2.07395
   R20        1.81370   0.00201   0.00000   0.00349   0.00349   1.81719
    A1        1.89173   0.00005   0.00000  -0.00146  -0.00146   1.89028
    A2        1.90643   0.00020   0.00000   0.00486   0.00485   1.91128
    A3        1.94470   0.00007   0.00000   0.00163   0.00160   1.94630
    A4        1.89337  -0.00015   0.00000  -0.00218  -0.00217   1.89121
    A5        1.88578  -0.00060   0.00000  -0.00737  -0.00737   1.87841
    A6        1.94040   0.00040   0.00000   0.00413   0.00410   1.94451
    A7        1.95426  -0.00580   0.00000  -0.03156  -0.03208   1.92218
    A8        1.93926  -0.00549   0.00000  -0.03196  -0.03258   1.90668
    A9        1.93691  -0.00706   0.00000  -0.03842  -0.03901   1.89790
   A10        1.88889   0.00592   0.00000   0.03140   0.03084   1.91973
   A11        1.86055   0.00723   0.00000   0.04294   0.04244   1.90300
   A12        1.88048   0.00642   0.00000   0.03442   0.03373   1.91421
   A13        1.94114  -0.00613   0.00000  -0.03435  -0.03497   1.90617
   A14        1.94085  -0.00594   0.00000  -0.03320  -0.03380   1.90705
   A15        1.94347  -0.00672   0.00000  -0.03684  -0.03745   1.90602
   A16        1.88200   0.00628   0.00000   0.03397   0.03335   1.91535
   A17        1.87642   0.00689   0.00000   0.03869   0.03806   1.91448
   A18        1.87690   0.00681   0.00000   0.03837   0.03777   1.91466
   A19        1.93908  -0.00548   0.00000  -0.03182  -0.03242   1.90666
   A20        1.95146  -0.00560   0.00000  -0.03039  -0.03089   1.92058
   A21        1.93752  -0.00691   0.00000  -0.03776  -0.03833   1.89919
   A22        1.88840   0.00582   0.00000   0.03116   0.03063   1.91903
   A23        1.88119   0.00632   0.00000   0.03378   0.03310   1.91429
   A24        1.86290   0.00702   0.00000   0.04155   0.04107   1.90397
   A25        1.99033   0.00847   0.00000   0.03448   0.03478   2.02511
   A26        1.90771  -0.00513   0.00000  -0.03581  -0.03636   1.87135
   A27        1.91458  -0.00656   0.00000  -0.04709  -0.04764   1.86694
   A28        1.89391  -0.00043   0.00000   0.01290   0.01325   1.90716
   A29        1.88887   0.00075   0.00000   0.01990   0.02038   1.90925
   A30        1.86417   0.00272   0.00000   0.01585   0.01443   1.87860
   A31        1.88695  -0.02357   0.00000  -0.09228  -0.09175   1.79519
   A32        1.97264  -0.00111   0.00000  -0.03174  -0.03105   1.94159
   A33        1.96807  -0.00108   0.00000  -0.02569  -0.02445   1.94363
   A34        1.86454   0.01357   0.00000   0.07599   0.07308   1.93762
   A35        1.85318   0.01503   0.00000   0.09490   0.09283   1.94601
   A36        1.91141  -0.00130   0.00000  -0.00827  -0.01246   1.89896
   A37        1.93820  -0.00456   0.00000  -0.02534  -0.02534   1.91285
    D1       -3.05877  -0.00041   0.00000  -0.00303  -0.00301  -3.06178
    D2        1.10995  -0.00011   0.00000   0.00115   0.00119   1.11114
    D3       -0.98201   0.00014   0.00000   0.00453   0.00447  -0.97754
    D4       -0.99893  -0.00045   0.00000  -0.00374  -0.00373  -1.00266
    D5       -3.11340  -0.00014   0.00000   0.00044   0.00048  -3.11292
    D6        1.07782   0.00011   0.00000   0.00381   0.00376   1.08158
    D7        1.15167   0.00024   0.00000   0.00598   0.00599   1.15767
    D8       -0.96279   0.00055   0.00000   0.01016   0.01020  -0.95259
    D9       -3.05476   0.00080   0.00000   0.01353   0.01348  -3.04128
   D10        3.12633   0.00022   0.00000   0.00343   0.00343   3.12976
   D11       -1.05906   0.00004   0.00000   0.00090   0.00090  -1.05816
   D12        1.03384   0.00014   0.00000   0.00235   0.00234   1.03618
   D13        1.05820   0.00004   0.00000  -0.00033  -0.00032   1.05788
   D14       -3.12719  -0.00015   0.00000  -0.00286  -0.00285  -3.13004
   D15       -1.03429  -0.00004   0.00000  -0.00141  -0.00141  -1.03570
   D16       -1.04722   0.00000   0.00000   0.00026   0.00026  -1.04696
   D17        1.05058  -0.00019   0.00000  -0.00228  -0.00227   1.04831
   D18       -3.13971  -0.00008   0.00000  -0.00082  -0.00083  -3.14054
   D19        3.11971   0.00006   0.00000  -0.00074  -0.00078   3.11893
   D20        1.00794   0.00031   0.00000   0.00260   0.00260   1.01054
   D21       -1.07033  -0.00021   0.00000  -0.00445  -0.00439  -1.07472
   D22       -1.10467   0.00015   0.00000  -0.00100  -0.00105  -1.10572
   D23        3.06674   0.00040   0.00000   0.00234   0.00233   3.06908
   D24        0.98848  -0.00012   0.00000  -0.00471  -0.00465   0.98382
   D25        0.96655  -0.00043   0.00000  -0.00895  -0.00901   0.95755
   D26       -1.14522  -0.00019   0.00000  -0.00560  -0.00562  -1.15085
   D27        3.05970  -0.00071   0.00000  -0.01266  -0.01261   3.04708
   D28       -1.07797  -0.00016   0.00000  -0.00702  -0.00707  -1.08504
   D29        1.04508   0.00131   0.00000   0.00682   0.00628   1.05136
   D30        3.08360  -0.00214   0.00000  -0.02174  -0.02115   3.06244
   D31        3.12891   0.00011   0.00000  -0.00155  -0.00160   3.12731
   D32       -1.03122   0.00157   0.00000   0.01229   0.01174  -1.01948
   D33        1.00729  -0.00187   0.00000  -0.01628  -0.01569   0.99160
   D34        1.05313   0.00042   0.00000   0.00328   0.00324   1.05637
   D35       -3.10700   0.00189   0.00000   0.01712   0.01659  -3.09041
   D36       -1.06848  -0.00155   0.00000  -0.01144  -0.01085  -1.07933
   D37        3.08584   0.00118   0.00000   0.01854   0.01831   3.10416
   D38       -1.13723   0.00188   0.00000   0.03329   0.03358  -1.10366
   D39        1.04246  -0.00165   0.00000  -0.02438  -0.02451   1.01794
   D40        0.95518   0.00237   0.00000   0.03184   0.03157   0.98675
   D41        3.01530   0.00308   0.00000   0.04659   0.04683   3.06213
   D42       -1.08820  -0.00045   0.00000  -0.01109  -0.01126  -1.09946
   D43       -1.06157  -0.00101   0.00000  -0.00412  -0.00423  -1.06580
   D44        0.99854  -0.00030   0.00000   0.01063   0.01103   1.00958
   D45       -3.10496  -0.00383   0.00000  -0.04704  -0.04706   3.13117
   D46       -2.95845  -0.00063   0.00000  -0.01310  -0.01287  -2.97132
   D47        1.19666   0.00611   0.00000   0.03283   0.03707   1.23373
   D48       -0.84222  -0.00619   0.00000  -0.04007  -0.04454  -0.88676
         Item               Value     Threshold  Converged?
 Maximum Force            0.023573     0.000450     NO 
 RMS     Force            0.006969     0.000300     NO 
 Maximum Displacement     0.221521     0.001800     NO 
 RMS     Displacement     0.061896     0.001200     NO 
 Predicted change in Energy=-1.097822D-02
 GradGradGradGradGradGradGradGradGradGradGradGradGradGradGradGradGradGrad

                          Input orientation:                          
 ---------------------------------------------------------------------
 Center     Atomic      Atomic             Coordinates (Angstroms)
 Number     Number       Type             X           Y           Z
 ---------------------------------------------------------------------
      1          7           0        0.336867   -0.131746    0.709531
      2          6           0        0.333422    1.366794    0.797720
      3          6           0        1.738868   -0.615481    0.950937
      4          6           0       -0.549963   -0.699009    1.779948
      5          6           0       -0.082552   -0.608564   -0.666759
      6          6           0       -1.493668   -0.236363   -1.101656
      7          8           0       -1.568342   -0.764049   -2.416143
      8          1           0       -0.683136    1.745044    0.707426
      9          1           0        0.955352    1.775174    0.000528
     10          1           0        0.737945    1.661750    1.766752
     11          1           0        1.756108   -1.704687    0.902099
     12          1           0        2.398637   -0.202034    0.187399
     13          1           0        2.066950   -0.286650    1.937576
     14          1           0       -0.562520   -1.786225    1.697441
     15          1           0       -1.559964   -0.306745    1.674307
     16          1           0       -0.154807   -0.409109    2.754363
     17          1           0        0.634746   -0.200889   -1.382771
     18          1           0        0.024295   -1.695947   -0.673775
     19          1           0       -2.245783   -0.697855   -0.448877
     20          1           0       -1.639926    0.851318   -1.095985
     21          1           0       -2.370800   -0.451556   -2.844058
 ---------------------------------------------------------------------
                    Distance matrix (angstroms):
                    1          2          3          4          5
     1  N    0.000000
     2  C    1.501137   0.000000
     3  C    1.502625   2.434783   0.000000
     4  C    1.501348   2.452078   2.435771   0.000000
     5  C    1.515732   2.493948   2.436095   2.492595   0.000000
     6  C    2.577247   3.084801   3.847876   3.067289   1.522799
     7  O    3.714763   4.299548   4.721963   4.318392   2.300455
     8  H    2.136060   1.088401   3.390794   2.672347   2.790799
     9  H    2.126395   1.090452   2.689313   3.399102   2.684162
    10  H    2.120190   1.090715   2.617858   2.689249   3.427757
    11  H    2.127315   3.386580   1.090437   2.664576   2.653954
    12  H    2.128018   2.664363   1.090515   3.387837   2.655401
    13  H    2.127270   2.652974   1.090516   2.653887   3.392131
    14  H    2.126538   3.399079   2.687805   1.090414   2.684529
    15  H    2.135272   2.674706   3.391294   1.088639   2.784679
    16  H    2.121323   2.687127   2.623155   1.090722   3.427693
    17  H    2.114531   2.702401   2.614797   3.413862   1.092423
    18  H    2.111388   3.411926   2.597471   2.710058   1.092642
    19  H    2.886601   3.531158   4.224181   2.800619   2.176009
    20  H    2.852020   2.783153   4.213981   3.444202   2.177362
    21  H    4.479033   4.886897   5.596269   4.975753   3.162493
                    6          7          8          9         10
     6  C    0.000000
     7  O    1.418417   0.000000
     8  H    2.802804   4.103148   0.000000
     9  H    3.355412   4.319373   1.784729   0.000000
    10  H    4.100084   5.357245   1.774424   1.783165   0.000000
    11  H    4.090483   4.790354   4.229474   3.682862   3.621764
    12  H    4.100351   4.778202   3.682237   2.455065   2.953971
    13  H    4.681609   5.691936   3.633735   3.039560   2.364677
    14  H    3.332275   4.356386   3.669406   4.226939   3.685721
    15  H    2.777647   4.115943   2.431775   3.669161   3.027194
    16  H    4.085495   5.371983   3.018188   3.686076   2.461877
    17  H    2.147191   2.497719   3.145218   2.433338   3.660542
    18  H    2.148878   2.537867   3.774731   3.656533   4.211840
    19  H    1.097622   2.081693   3.121964   4.070025   4.402201
    20  H    1.097485   2.087427   2.228561   2.965016   3.808718
    21  H    1.962558   0.961615   4.504031   4.910528   5.948943
                   11         12         13         14         15
    11  H    0.000000
    12  H    1.783706   0.000000
    13  H    1.783161   1.783339   0.000000
    14  H    2.452601   3.682165   3.036528   0.000000
    15  H    3.680608   4.229939   3.636512   1.784458   0.000000
    16  H    2.959898   3.626605   2.370304   1.783189   1.775237
    17  H    2.956263   2.361514   3.617081   3.665303   3.764796
    18  H    2.341502   2.934433   3.602459   2.444416   3.154877
    19  H    4.342116   4.713950   4.946101   2.936768   2.265221
    20  H    4.696653   4.366534   4.923251   3.990071   3.003668
    21  H    5.712740   5.656812   6.525707   5.067192   4.592826
                   16         17         18         19         20
    16  H    0.000000
    17  H    4.216946   0.000000
    18  H    3.666083   1.763667   0.000000
    19  H    3.836183   3.068644   2.489983   0.000000
    20  H    4.315024   2.522602   3.071880   1.784866   0.000000
    21  H    6.021191   3.351343   3.463397   2.411055   2.299438
                   21
    21  H    0.000000
 Stoichiometry    C5H14NO(1+)
 Framework group  C1[X(C5H14NO)]
 Deg. of freedom    57
 Full point group                 C1      NOp   1
 Largest Abelian subgroup         C1      NOp   1
 Largest concise Abelian subgroup C1      NOp   1
                         Standard orientation:                         
 ---------------------------------------------------------------------
 Center     Atomic      Atomic             Coordinates (Angstroms)
 Number     Number       Type             X           Y           Z
 ---------------------------------------------------------------------
      1          7           0        0.869652    0.022129    0.001804
      2          6           0        1.121217   -0.743150    1.268483
      3          6           0        1.824615    1.181250   -0.046843
      4          6           0        1.139517   -0.862816   -1.180605
      5          6           0       -0.537279    0.584649   -0.037701
      6          6           0       -1.666297   -0.437016   -0.016835
      7          8           0       -2.828141    0.376607   -0.010122
      8          1           0        0.500086   -1.636487    1.296087
      9          1           0        0.895964   -0.105867    2.124180
     10          1           0        2.170762   -1.038637    1.296830
     11          1           0        1.662624    1.741272   -0.968357
     12          1           0        1.649103    1.828397    0.813169
     13          1           0        2.847674    0.804559   -0.020786
     14          1           0        0.933341   -0.310088   -2.097657
     15          1           0        0.511631   -1.750862   -1.132969
     16          1           0        2.187278   -1.165331   -1.161729
     17          1           0       -0.641730    1.254982    0.818531
     18          1           0       -0.613081    1.190645   -0.943730
     19          1           0       -1.639480   -1.077664   -0.907690
     20          1           0       -1.614601   -1.071738    0.876993
     21          1           0       -3.602651   -0.168444    0.156483
 ---------------------------------------------------------------------
 Rotational constants (GHZ):      4.2969311      1.4592287      1.4353040
 Standard basis: 6-311++G(d,p) (5D, 7F)
 There are   259 symmetry adapted cartesian basis functions of A   symmetry.
 There are   252 symmetry adapted basis functions of A   symmetry.
   252 basis functions,   378 primitive gaussians,   259 cartesian basis functions
    29 alpha electrons       29 beta electrons
       nuclear repulsion energy       354.5476182449 Hartrees.
 NAtoms=   21 NActive=   21 NUniq=   21 SFac= 1.00D+00 NAtFMM=   60 NAOKFM=F Big=F
 Integral buffers will be    131072 words long.
 Raffenetti 2 integral format.
 Two-electron integral symmetry is turned on.
 One-electron integrals computed using PRISM.
 NBasis=   252 RedAO= T EigKep=  2.35D-05  NBF=   252
 NBsUse=   252 1.00D-06 EigRej= -1.00D+00 NBFU=   252
 Initial guess from the checkpoint file:  "Anth_362.chk"
 B after Tr=     0.000000    0.000000    0.000000
         Rot=    0.999958   -0.003108   -0.000977   -0.008615 Ang=  -1.06 deg.
 ExpMin= 3.60D-02 ExpMax= 8.59D+03 ExpMxC= 1.30D+03 IAcc=3 IRadAn=         5 AccDes= 0.00D+00
 Harris functional with IExCor=  402 and IRadAn=       5 diagonalized for initial guess.
 HarFok:  IExCor=  402 AccDes= 0.00D+00 IRadAn=         5 IDoV= 1 UseB2=F ITyADJ=14
 ICtDFT=  3500011 ScaDFX=  1.000000  1.000000  1.000000  1.000000
 FoFCou: FMM=F IPFlag=           0 FMFlag=      100000 FMFlg1=           0
         NFxFlg=           0 DoJE=T BraDBF=F KetDBF=T FulRan=T
         wScrn=  0.000000 ICntrl=     500 IOpCl=  0 I1Cent=   200000004 NGrid=           0
         NMat0=    1 NMatS0=      1 NMatT0=    0 NMatD0=    1 NMtDS0=    0 NMtDT0=    0
 Petite list used in FoFCou.
 Keep R1 ints in memory in canonical form, NReq=517134184.
 Requested convergence on RMS density matrix=1.00D-08 within 128 cycles.
 Requested convergence on MAX density matrix=1.00D-06.
 Requested convergence on             energy=1.00D-06.
 No special actions if energy rises.
 SCF Done:  E(RB3LYP) =  -328.781913372     A.U. after   10 cycles
            NFock= 10  Conv=0.61D-08     -V/T= 2.0044
 Calling FoFJK, ICntrl=      2127 FMM=F ISym2X=0 I1Cent= 0 IOpClX= 0 NMat=1 NMatS=1 NMatT=0.
 ***** Axes restored to original set *****
 -------------------------------------------------------------------
 Center     Atomic                   Forces (Hartrees/Bohr)
 Number     Number              X              Y              Z
 -------------------------------------------------------------------
      1        7           0.001843494   -0.000456161    0.001256627
      2        6          -0.000279359    0.006064808    0.000615548
      3        6           0.006283891   -0.002409582    0.000711428
      4        6          -0.003776996   -0.001907377    0.004229644
      5        6           0.002141165   -0.002242037   -0.002509827
      6        6          -0.002718370   -0.000460821   -0.002786028
      7        8           0.000926285    0.001656279    0.002863245
      8        1           0.000506049   -0.001021741   -0.000386623
      9        1          -0.000583100   -0.000929344    0.000459468
     10        1          -0.000156093   -0.000713461   -0.000983975
     11        1          -0.000480830    0.001176137   -0.000161272
     12        1          -0.001182877   -0.000305583    0.000521326
     13        1          -0.000917514   -0.000036483   -0.000942946
     14        1           0.000240031    0.001018523   -0.000467844
     15        1           0.000940343   -0.000117537   -0.000683889
     16        1           0.000095263   -0.000247617   -0.001213367
     17        1          -0.000886533    0.000611869    0.001207256
     18        1          -0.000557964    0.001055086    0.000488700
     19        1           0.000138784    0.000846545   -0.000516522
     20        1           0.000008789   -0.000988913   -0.000375619
     21        1          -0.001584458   -0.000592589   -0.001325330
 -------------------------------------------------------------------
 Cartesian Forces:  Max     0.006283891 RMS     0.001745007

 GradGradGradGradGradGradGradGradGradGradGradGradGradGradGradGradGradGrad
 Berny optimization.
 Using GEDIIS/GDIIS optimizer.
 FormGI is forming the generalized inverse of G from B-inverse, IUseBI=4.
 Internal  Forces:  Max     0.003984371 RMS     0.001024609
 Search for a local minimum.
 Step number   2 out of a maximum of  115
 All quantities printed in internal units (Hartrees-Bohrs-Radians)
 Mixed Optimization -- RFO/linear search
 Update second derivatives using D2CorX and points    1    2
 DE= -1.04D-02 DEPred=-1.10D-02 R= 9.47D-01
 TightC=F SS=  1.41D+00  RLast= 3.05D-01 DXNew= 5.0454D-01 9.1542D-01
 Trust test= 9.47D-01 RLast= 3.05D-01 DXMaxT set to 5.05D-01
 ITU=  1  0
 Use linear search instead of GDIIS.
     Eigenvalues ---    0.00230   0.00230   0.00230   0.00230   0.00355
     Eigenvalues ---    0.01476   0.03224   0.04257   0.04740   0.04933
     Eigenvalues ---    0.05050   0.05656   0.05667   0.05756   0.05764
     Eigenvalues ---    0.05799   0.05806   0.05824   0.05849   0.08857
     Eigenvalues ---    0.11115   0.12548   0.13246   0.14212   0.14531
     Eigenvalues ---    0.15605   0.16000   0.16000   0.16000   0.16000
     Eigenvalues ---    0.16000   0.16000   0.16000   0.16000   0.16243
     Eigenvalues ---    0.21512   0.22461   0.29219   0.29746   0.30127
     Eigenvalues ---    0.30366   0.30460   0.31942   0.31998   0.32210
     Eigenvalues ---    0.32213   0.32216   0.32217   0.32220   0.32224
     Eigenvalues ---    0.32344   0.32398   0.32430   0.32454   0.33792
     Eigenvalues ---    0.43124   0.55517
 RFO step:  Lambda=-5.48730102D-04 EMin= 2.29998673D-03
 Quartic linear search produced a step of  0.02490.
 Iteration  1 RMS(Cart)=  0.02121361 RMS(Int)=  0.00026669
 Iteration  2 RMS(Cart)=  0.00035398 RMS(Int)=  0.00002768
 Iteration  3 RMS(Cart)=  0.00000011 RMS(Int)=  0.00002768
 Variable       Old X    -DE/DX   Delta X   Delta X   Delta X     New X
                                 (Linear)    (Quad)   (Total)
    R1        2.83674   0.00337  -0.00085   0.01139   0.01054   2.84728
    R2        2.83955   0.00398  -0.00091   0.01357   0.01265   2.85220
    R3        2.83714   0.00328  -0.00083   0.01107   0.01024   2.84738
    R4        2.86432   0.00341  -0.00045   0.01173   0.01127   2.87559
    R5        2.05678  -0.00080  -0.00110  -0.00245  -0.00355   2.05323
    R6        2.06066  -0.00102  -0.00109  -0.00317  -0.00425   2.05640
    R7        2.06115  -0.00112  -0.00108  -0.00350  -0.00458   2.05657
    R8        2.06063  -0.00117  -0.00109  -0.00366  -0.00475   2.05587
    R9        2.06078  -0.00120  -0.00109  -0.00373  -0.00482   2.05595
   R10        2.06078  -0.00114  -0.00109  -0.00356  -0.00465   2.05613
   R11        2.06058  -0.00098  -0.00109  -0.00305  -0.00414   2.05645
   R12        2.05723  -0.00085  -0.00110  -0.00262  -0.00372   2.05351
   R13        2.06117  -0.00112  -0.00108  -0.00348  -0.00456   2.05661
   R14        2.87767   0.00372  -0.00039   0.01301   0.01262   2.89029
   R15        2.06438  -0.00114  -0.00113  -0.00360  -0.00472   2.05966
   R16        2.06479  -0.00111  -0.00111  -0.00348  -0.00459   2.06020
   R17        2.68042  -0.00179   0.00010  -0.00426  -0.00416   2.67626
   R18        2.07420  -0.00076  -0.00066  -0.00235  -0.00301   2.07120
   R19        2.07395  -0.00098  -0.00065  -0.00305  -0.00370   2.07024
   R20        1.81719   0.00172   0.00009   0.00317   0.00326   1.82045
    A1        1.89028   0.00028  -0.00004   0.00621   0.00616   1.89643
    A2        1.91128   0.00011   0.00012   0.00090   0.00096   1.91224
    A3        1.94630  -0.00032   0.00004  -0.00642  -0.00639   1.93992
    A4        1.89121   0.00025  -0.00005   0.00609   0.00603   1.89723
    A5        1.87841  -0.00002  -0.00018  -0.00016  -0.00032   1.87809
    A6        1.94451  -0.00027   0.00010  -0.00590  -0.00581   1.93870
    A7        1.92218  -0.00099  -0.00080  -0.00643  -0.00726   1.91491
    A8        1.90668  -0.00068  -0.00081  -0.00511  -0.00596   1.90071
    A9        1.89790  -0.00025  -0.00097  -0.00026  -0.00125   1.89665
   A10        1.91973   0.00060   0.00077   0.00147   0.00218   1.92191
   A11        1.90300   0.00081   0.00106   0.00681   0.00785   1.91085
   A12        1.91421   0.00050   0.00084   0.00356   0.00438   1.91859
   A13        1.90617  -0.00048  -0.00087  -0.00298  -0.00388   1.90229
   A14        1.90705  -0.00059  -0.00084  -0.00384  -0.00471   1.90234
   A15        1.90602  -0.00071  -0.00093  -0.00409  -0.00505   1.90097
   A16        1.91535   0.00047   0.00083   0.00228   0.00308   1.91843
   A17        1.91448   0.00063   0.00095   0.00429   0.00521   1.91969
   A18        1.91466   0.00066   0.00094   0.00426   0.00517   1.91983
   A19        1.90666  -0.00063  -0.00081  -0.00465  -0.00549   1.90117
   A20        1.92058  -0.00088  -0.00077  -0.00561  -0.00641   1.91417
   A21        1.89919  -0.00037  -0.00095  -0.00132  -0.00230   1.89689
   A22        1.91903   0.00057   0.00076   0.00179   0.00251   1.92154
   A23        1.91429   0.00052   0.00082   0.00346   0.00426   1.91855
   A24        1.90397   0.00078   0.00102   0.00634   0.00735   1.91131
   A25        2.02511   0.00281   0.00087   0.01213   0.01302   2.03813
   A26        1.87135  -0.00108  -0.00091  -0.00584  -0.00676   1.86460
   A27        1.86694  -0.00104  -0.00119  -0.00558  -0.00678   1.86016
   A28        1.90716  -0.00079   0.00033  -0.00355  -0.00319   1.90397
   A29        1.90925  -0.00084   0.00051  -0.00415  -0.00361   1.90563
   A30        1.87860   0.00087   0.00036   0.00698   0.00728   1.88588
   A31        1.79519   0.00015  -0.00228   0.00126  -0.00101   1.79419
   A32        1.94159   0.00019  -0.00077   0.00239   0.00163   1.94322
   A33        1.94363   0.00036  -0.00061   0.00378   0.00321   1.94683
   A34        1.93762  -0.00018   0.00182  -0.00232  -0.00057   1.93705
   A35        1.94601  -0.00024   0.00231  -0.00261  -0.00036   1.94566
   A36        1.89896  -0.00025  -0.00031  -0.00228  -0.00270   1.89626
   A37        1.91285   0.00184  -0.00063   0.01181   0.01118   1.92404
    D1       -3.06178  -0.00037  -0.00008  -0.00768  -0.00775  -3.06953
    D2        1.11114  -0.00006   0.00003  -0.00221  -0.00220   1.10895
    D3       -0.97754  -0.00012   0.00011  -0.00336  -0.00326  -0.98080
    D4       -1.00266   0.00015  -0.00009   0.00373   0.00365  -0.99901
    D5       -3.11292   0.00046   0.00001   0.00920   0.00920  -3.10372
    D6        1.08158   0.00040   0.00009   0.00805   0.00814   1.08972
    D7        1.15767  -0.00033   0.00015  -0.00760  -0.00743   1.15024
    D8       -0.95259  -0.00003   0.00025  -0.00213  -0.00188  -0.95448
    D9       -3.04128  -0.00009   0.00034  -0.00328  -0.00294  -3.04422
   D10        3.12976   0.00026   0.00009   0.00223   0.00233   3.13209
   D11       -1.05816   0.00018   0.00002   0.00088   0.00091  -1.05725
   D12        1.03618   0.00020   0.00006   0.00127   0.00134   1.03752
   D13        1.05788  -0.00017  -0.00001  -0.00572  -0.00574   1.05215
   D14       -3.13004  -0.00025  -0.00007  -0.00707  -0.00715  -3.13719
   D15       -1.03570  -0.00022  -0.00004  -0.00668  -0.00672  -1.04242
   D16       -1.04696   0.00002   0.00001  -0.00202  -0.00201  -1.04897
   D17        1.04831  -0.00006  -0.00006  -0.00337  -0.00343   1.04488
   D18       -3.14054  -0.00003  -0.00002  -0.00298  -0.00300   3.13965
   D19        3.11893  -0.00047  -0.00002  -0.01760  -0.01762   3.10131
   D20        1.01054  -0.00023   0.00006  -0.01337  -0.01332   0.99722
   D21       -1.07472  -0.00044  -0.00011  -0.01695  -0.01706  -1.09177
   D22       -1.10572   0.00007  -0.00003  -0.00612  -0.00614  -1.11186
   D23        3.06908   0.00031   0.00006  -0.00189  -0.00184   3.06724
   D24        0.98382   0.00011  -0.00012  -0.00547  -0.00558   0.97825
[...]
    10  H   -0.019765   0.383044  -0.016048  -0.015650   0.033134   0.003360
    11  H   -0.007095   0.020473   0.386291  -0.018550  -0.015330  -0.003030
    12  H   -0.006897  -0.017870   0.386318   0.020685  -0.016383  -0.003459
    13  H   -0.002452  -0.025292   0.392608  -0.024825   0.029628  -0.009654
    14  H    0.005778   0.016859  -0.006913   0.381701  -0.023242  -0.015022
    15  H   -0.016052  -0.009725   0.016279   0.377634  -0.029431   0.026191
    16  H   -0.018923  -0.015850  -0.016330   0.382531   0.032421   0.004308
    17  H    0.008706  -0.026125  -0.003437   0.009530   0.345480  -0.018875
    18  H    0.006342   0.011173  -0.005151  -0.023532   0.355586  -0.026847
    19  H   -0.002811   0.012327   0.003973  -0.019800  -0.005001   0.341731
    20  H   -0.009635  -0.014980   0.003372   0.015032   0.011107   0.330126
    21  H    0.000272   0.001820  -0.003133   0.001780  -0.103858   0.142642
               7          8          9         10         11         12
     1  N    0.011571  -0.016942   0.007122  -0.019765  -0.007095  -0.006897
     2  C   -0.012444   0.379092   0.380585   0.383044   0.020473  -0.017870
     3  C    0.017662   0.015349  -0.006525  -0.016048   0.386291   0.386318
     4  C   -0.012190  -0.009397   0.016026  -0.015650  -0.018550   0.020685
     5  C    0.104162  -0.031229  -0.023967   0.033134  -0.015330  -0.016383
     6  C    0.005823   0.028312  -0.014435   0.003360  -0.003030  -0.003459
     7  O    8.004640  -0.000919   0.004489  -0.000670   0.000398   0.000390
     8  H   -0.000919   0.511463  -0.032219  -0.031569  -0.001985  -0.001959
     9  H    0.004489  -0.032219   0.488393  -0.033540  -0.000559  -0.000360
    10  H   -0.000670  -0.031569  -0.033540   0.494326  -0.000762   0.004765
    11  H    0.000398  -0.001985  -0.000559  -0.000762   0.492349  -0.030657
    12  H    0.000390  -0.001959  -0.000360   0.004765  -0.030657   0.492330
    13  H    0.001045  -0.000396   0.004426  -0.004827  -0.030766  -0.030706
    14  H    0.004470   0.000492  -0.004196   0.001873  -0.000259  -0.000556
    15  H   -0.000907  -0.006980   0.000598   0.005562  -0.001982  -0.001980
    16  H   -0.000684   0.005717   0.001817  -0.007524   0.004790  -0.000735
    17  H    0.009523   0.005730   0.001378  -0.003764  -0.000443   0.002011
    18  H    0.008269  -0.001552  -0.004717  -0.000308   0.002154  -0.000102
    19  H   -0.051878  -0.004617   0.008996  -0.003378   0.000525  -0.000314
    20  H   -0.050596  -0.000675  -0.015031   0.004785  -0.000219   0.000681
    21  H    0.206268   0.001357  -0.000939   0.000235  -0.000085  -0.000091
              13         14         15         16         17         18
     1  N   -0.002452   0.005778  -0.016052  -0.018923   0.008706   0.006342
     2  C   -0.025292   0.016859  -0.009725  -0.015850  -0.026125   0.011173
     3  C    0.392608  -0.006913   0.016279  -0.016330  -0.003437  -0.005151
     4  C   -0.024825   0.381701   0.377634   0.382531   0.009530  -0.023532
     5  C    0.029628  -0.023242  -0.029431   0.032421   0.345480   0.355586
     6  C   -0.009654  -0.015022   0.026191   0.004308  -0.018875  -0.026847
     7  O    0.001045   0.004470  -0.000907  -0.000684   0.009523   0.008269
     8  H   -0.000396   0.000492  -0.006980   0.005717   0.005730  -0.001552
     9  H    0.004426  -0.004196   0.000598   0.001817   0.001378  -0.004717
    10  H   -0.004827   0.001873   0.005562  -0.007524  -0.003764  -0.000308
    11  H   -0.030766  -0.000259  -0.001982   0.004790  -0.000443   0.002154
    12  H   -0.030706  -0.000556  -0.001980  -0.000735   0.002011  -0.000102
    13  H    0.503690   0.004495  -0.000414  -0.005054   0.000382   0.000345
    14  H    0.004495   0.489087  -0.032743  -0.033408  -0.004527   0.001233
    15  H   -0.000414  -0.032743   0.513525  -0.031699  -0.001518   0.005701
    16  H   -0.005054  -0.033408  -0.031699   0.494117  -0.000395  -0.003709
    17  H    0.000382  -0.004527  -0.001518  -0.000395   0.514038  -0.059302
    18  H    0.000345   0.001233   0.005701  -0.003709  -0.059302   0.511248
    19  H    0.000348  -0.014394   0.000216   0.004540   0.038449  -0.050731
    20  H    0.000374   0.008535  -0.004487  -0.003185  -0.051522   0.037645
    21  H   -0.000057  -0.000928   0.001299   0.000238   0.000941   0.000902
              19         20         21
     1  N   -0.002811  -0.009635   0.000272
     2  C    0.012327  -0.014980   0.001820
     3  C    0.003973   0.003372  -0.003133
     4  C   -0.019800   0.015032   0.001780
     5  C   -0.005001   0.011107  -0.103858
     6  C    0.341731   0.330126   0.142642
     7  O   -0.051878  -0.050596   0.206268
     8  H   -0.004617  -0.000675   0.001357
     9  H    0.008996  -0.015031  -0.000939
    10  H   -0.003378   0.004785   0.000235
    11  H    0.000525  -0.000219  -0.000085
    12  H   -0.000314   0.000681  -0.000091
    13  H    0.000348   0.000374  -0.000057
    14  H   -0.014394   0.008535  -0.000928
    15  H    0.000216  -0.004487   0.001299
    16  H    0.004540  -0.003185   0.000238
    17  H    0.038449  -0.051522   0.000941
    18  H   -0.050731   0.037645   0.000902
    19  H    0.720077  -0.146747  -0.006796
    20  H   -0.146747   0.717617  -0.007419
    21  H   -0.006796  -0.007419   0.487102
 Mulliken charges:
               1
     1  N   -0.417850
     2  C   -0.259094
     3  C   -0.253239
     4  C   -0.254226
     5  C   -0.265930
     6  C   -0.247918
     7  O   -0.248420
     8  H    0.192925
     9  H    0.222658
    10  H    0.206723
    11  H    0.204741
    12  H    0.204887
    13  H    0.197103
    14  H    0.221663
    15  H    0.190915
    16  H    0.207015
    17  H    0.233738
    18  H    0.235353
    19  H    0.175284
    20  H    0.175221
    21  H    0.278450
 Sum of Mulliken charges =   1.00000
 Mulliken charges with hydrogens summed into heavy atoms:
               1
     1  N   -0.417850
     2  C    0.363213
     3  C    0.353492
     4  C    0.365367
     5  C    0.203161
     6  C    0.102587
     7  O    0.030030
 Electronic spatial extent (au):  <R**2>=            960.9306
 Charge=              1.0000 electrons
 Dipole moment (field-independent basis, Debye):
    X=              3.2957    Y=             -1.5838    Z=              0.0037  Tot=              3.6565
 Quadrupole moment (field-independent basis, Debye-Ang):
   XX=            -27.7192   YY=            -38.2596   ZZ=            -37.8618
   XY=              5.6080   XZ=             -0.0120   YZ=             -0.0041
 Traceless Quadrupole moment (field-independent basis, Debye-Ang):
   XX=              6.8943   YY=             -3.6460   ZZ=             -3.2483
   XY=              5.6080   XZ=             -0.0120   YZ=             -0.0041
 Octapole moment (field-independent basis, Debye-Ang**2):
  XXX=            -21.1527  YYY=              1.1759  ZZZ=             -0.0660  XYY=              5.8546
  XXY=            -14.7624  XXZ=              0.0586  XZZ=              4.8697  YZZ=             -1.5672
  YYZ=              0.0517  XYZ=              0.0125
 Hexadecapole moment (field-independent basis, Debye-Ang**3):
 XXXX=           -538.4557 YYYY=           -215.6039 ZZZZ=           -192.0380 XXXY=             48.1302
 XXXZ=             -0.1156 YYYX=              6.4606 YYYZ=             -0.2177 ZZZX=             -0.1866
 ZZZY=              0.0970 XXYY=           -157.2034 XXZZ=           -159.8117 YYZZ=            -63.7451
 XXYZ=              0.0926 YYXZ=              0.1840 ZZXY=             -1.4388
 N-N= 3.537215249021D+02 E-N=-1.461342847888D+03  KE= 3.273099644739D+02

 **********************************************************************

            Electrostatic Properties Using The SCF Density

 **********************************************************************

       Atomic Center    1 is at   0.877563  0.021441  0.000011
       Atomic Center    2 is at   1.132036 -0.829832  1.218570
       Atomic Center    3 is at   1.831621  1.191766  0.020199
       Atomic Center    4 is at   1.134672 -0.788898 -1.245683
       Atomic Center    5 is at  -0.537844  0.581303  0.007783
       Atomic Center    6 is at  -1.677999 -0.438992 -0.000023
       Atomic Center    7 is at  -2.828002  0.383843 -0.000424
       Atomic Center    8 is at   0.505735 -1.717614  1.180188
       Atomic Center    9 is at   0.902616 -0.246900  2.109147
       Atomic Center   10 is at   2.180776 -1.122587  1.225594
       Atomic Center   11 is at   1.653373  1.806828 -0.859933
       Atomic Center   12 is at   1.656546  1.773567  0.923285
       Atomic Center   13 is at   2.852118  0.812723  0.011324
       Atomic Center   14 is at   0.915373 -0.173644 -2.116847
       Atomic Center   15 is at   0.502065 -1.672958 -1.242644
       Atomic Center   16 is at   2.181467 -1.088437 -1.255839
       Atomic Center   17 is at  -0.624808  1.205442  0.897779
       Atomic Center   18 is at  -0.627930  1.222003 -0.870063
       Atomic Center   19 is at  -1.640377 -1.073825 -0.893267
       Atomic Center   20 is at  -1.645598 -1.080557  0.888517
       Atomic Center   21 is at  -3.625201 -0.156948  0.001000
 -----------------------------------------------------------------

              Electrostatic Properties (Atomic Units)

 -----------------------------------------------------------------
    Center     Electric         -------- Electric Field --------
               Potential          X             Y             Z
 -----------------------------------------------------------------
    1 Atom    -18.089822     -0.000915      0.000289     -0.000008
    2 Atom    -14.553102      0.001713     -0.004991      0.007398
    3 Atom    -14.554619      0.005734      0.007039      0.000123
    4 Atom    -14.553185      0.001728     -0.004729     -0.007564
    5 Atom    -14.554592     -0.010693      0.002521      0.000040
    6 Atom    -14.556211      0.005630     -0.006251      0.000008
    7 Atom    -22.220543     -0.001001      0.048403     -0.000086
    8 Atom     -0.915823     -0.010765     -0.015648     -0.000285
    9 Atom     -0.915823     -0.003877      0.009773      0.015766
   10 Atom     -0.915849      0.018110     -0.005337      0.000512
   11 Atom     -0.917489     -0.002698      0.011086     -0.015194
   12 Atom     -0.917483     -0.002644      0.010508      0.015604
   13 Atom     -0.916930      0.017986     -0.006045     -0.000144
   14 Atom     -0.915919     -0.003713      0.010326     -0.015440
   15 Atom     -0.915891     -0.010853     -0.015589     -0.000326
   16 Atom     -0.915892      0.018077     -0.005440     -0.000582
   17 Atom     -0.928499     -0.001988      0.011148      0.015273
   18 Atom     -0.928499     -0.002049      0.011444     -0.015053
   19 Atom     -0.957746     -0.000387     -0.010276     -0.014818
   20 Atom     -0.957767     -0.000469     -0.010394      0.014749
   21 Atom     -0.856815     -0.022391     -0.013038      0.000039
 -----------------------------------------------------------------
 -----------------------------------------------------
    Center         ---- Electric Field Gradient ----
                     XX            YY            ZZ
 -----------------------------------------------------
    1 Atom     -812.727219   -812.750951   -812.762146
    2 Atom     -500.318320   -500.505998   -500.739510
    3 Atom     -500.617255   -500.745783   -500.333829
    4 Atom     -500.319354   -500.486074   -500.759879
    5 Atom     -501.030698   -500.603804   -500.408520
    6 Atom     -500.558451   -500.326196   -500.073156
    7 Atom    -1238.486338  -1236.792349  -1234.672794
    8 Atom       -1.830982     -1.977060     -1.691423
    9 Atom       -1.686065     -1.814229     -1.972989
   10 Atom       -2.090391     -1.703910     -1.684520
   11 Atom       -1.692261     -1.817138     -1.967991
   12 Atom       -1.691868     -1.802333     -1.983380
   13 Atom       -2.067548     -1.749469     -1.666579
   14 Atom       -1.684237     -1.828504     -1.960493
   15 Atom       -1.834268     -1.974477     -1.690941
   16 Atom       -2.088804     -1.704679     -1.685351
   17 Atom       -1.704844     -1.824372     -1.982650
   18 Atom       -1.704667     -1.831937     -1.974418
   19 Atom       -1.730514     -1.857346     -1.999707
   20 Atom       -1.730302     -1.860542     -1.996720
   21 Atom       -2.008204     -1.749149     -1.480449
 -----------------------------------------------------
 -----------------------------------------------------
    Center         ---- Electric Field Gradient ----
                     XY            XZ            YZ
 -----------------------------------------------------
    1 Atom       -0.000970      0.000174      0.000355
    2 Atom        0.069232     -0.099144      0.304879
    3 Atom       -0.337911     -0.005843     -0.007177
    4 Atom        0.066697      0.102404     -0.296548
    5 Atom        0.249804      0.003661     -0.002333
    6 Atom        0.161923     -0.000874     -0.000720
    7 Atom        0.274805      0.001919      0.002078
    8 Atom       -0.214621     -0.020441     -0.009712
    9 Atom        0.057580      0.075259     -0.189363
   10 Atom        0.113670      0.004861      0.011197
   11 Atom        0.031429     -0.069168      0.202024
   12 Atom        0.028161      0.069287     -0.195955
   13 Atom        0.144468      0.003395     -0.001799
   14 Atom        0.057894     -0.069985      0.195324
   15 Atom       -0.216296      0.012002     -0.001818
   16 Atom        0.116495     -0.003695     -0.011063
   17 Atom        0.018553      0.019407     -0.206292
   18 Atom        0.019650     -0.019927      0.209009
   19 Atom        0.013489      0.013963     -0.205442
   20 Atom        0.012372     -0.012127      0.206548
   21 Atom       -0.306476      0.000880      0.000657
 -----------------------------------------------------
 -----------------------------------------------------
    Center         ---- Electric Field Gradient ----
                   ----       Eigenvalues       ----
 -----------------------------------------------------
    1 Atom     -812.762158   -812.750979   -812.727179
    2 Atom     -500.971608   -500.296966   -500.295255
    3 Atom     -501.025610   -500.337553   -500.333704
    4 Atom     -500.972467   -500.297402   -500.295439
    5 Atom     -501.145851   -500.488679   -500.408491
    6 Atom     -500.641584   -500.243070   -500.073149
    7 Atom    -1238.529804  -1236.748887  -1234.672790
    8 Atom       -2.131621     -1.696717     -1.671127
    9 Atom       -2.119565     -1.689814     -1.663904
   10 Atom       -2.121352     -1.692126     -1.665344
   11 Atom       -2.121245     -1.691540     -1.664605
   12 Atom       -2.121317     -1.691594     -1.664670
   13 Atom       -2.123400     -1.693657     -1.666539
   14 Atom       -2.119537     -1.689843     -1.663854
   15 Atom       -2.131817     -1.696750     -1.671120
   16 Atom       -2.121373     -1.692129     -1.665332
   17 Atom       -2.126129     -1.704032     -1.681704
   18 Atom       -2.125808     -1.703748     -1.681467
   19 Atom       -2.146836     -1.730069     -1.710663
   20 Atom       -2.146813     -1.730051     -1.710700
   21 Atom       -2.211402     -1.545953     -1.480448
 -----------------------------------------------------
 -----------------------------------------------------
    Center         ---- Electric Field Gradient ----
                       ( tensor representation )
                   3XX-RR        3YY-RR        3ZZ-RR
 -----------------------------------------------------
    1 Atom        0.019553     -0.004179     -0.015374
    2 Atom        0.202956      0.015278     -0.218234
    3 Atom       -0.051633     -0.180161      0.231793
    4 Atom        0.202415      0.035695     -0.238110
    5 Atom       -0.349691      0.077204      0.272487
    6 Atom       -0.239184     -0.006928      0.246112
    7 Atom       -1.835845     -0.141855      1.977700
    8 Atom        0.002173     -0.143905      0.141732
    9 Atom        0.138363      0.010199     -0.148561
   10 Atom       -0.264118      0.122364      0.141754
   11 Atom        0.133536      0.008659     -0.142195
   12 Atom        0.133992      0.023527     -0.157519
   13 Atom       -0.239683      0.078396      0.161286
   14 Atom        0.140174     -0.004092     -0.136082
   15 Atom       -0.001039     -0.141248      0.142287
   16 Atom       -0.262526      0.121599      0.140927
   17 Atom        0.132444      0.012917     -0.145361
   18 Atom        0.132340      0.005070     -0.137411
   19 Atom        0.132008      0.005176     -0.137185
   20 Atom        0.132220      0.001979     -0.134199
   21 Atom       -0.262270     -0.003215      0.265485
 -----------------------------------------------------
 -----------------------------------------------------
    Center         ---- Electric Field Gradient ----
                       ( tensor representation )
                   ----       Eigenvalues       ----
 -----------------------------------------------------
    1 Atom       -0.015386     -0.004207      0.019593
    2 Atom       -0.450331      0.224310      0.226021
    3 Atom       -0.459988      0.228069      0.231918
    4 Atom       -0.450698      0.224367      0.226330
    5 Atom       -0.464844      0.192328      0.272516
    6 Atom       -0.322317      0.076198      0.246119
    7 Atom       -1.879310     -0.098393      1.977703
    8 Atom       -0.298466      0.136438      0.162028
    9 Atom       -0.295137      0.134614      0.160523
   10 Atom       -0.295078      0.134148      0.160930
   11 Atom       -0.295448      0.134257      0.161192
   12 Atom       -0.295456      0.134266      0.161190
   13 Atom       -0.295534      0.134209      0.161326
   14 Atom       -0.295125      0.134569      0.160557
   15 Atom       -0.298588      0.136479      0.162109
   16 Atom       -0.295095      0.134149      0.160946
   17 Atom       -0.288841      0.133256      0.155585
   18 Atom       -0.288801      0.133260      0.155541
   19 Atom       -0.284313      0.132453      0.151860
   20 Atom       -0.284291      0.132470      0.151821
   21 Atom       -0.465468      0.199981      0.265487
 -----------------------------------------------------

 Test job not archived.
 1|1|UNPC-NP-ALMACH|FOpt|RB3LYP|6-311++G(d,p)|C5H14N1O1(1+)|HERA|04-Aug
 -2018|0||# RB3LYP/6-311++G** Opt Test prop=EFG||C5NH14O||1,1|N,0.34285
 32309,-0.1309783695,0.7179062783|C,0.3312991586,1.3739418836,0.8148009
 451|C,1.7523543572,-0.6195730484,0.9521618766|C,-0.5525800779,-0.71321
 50113,1.782663579|C,-0.0805274547,-0.5946885608,-0.6686739513|C,-1.486
 4380609,-0.1981495143,-1.1238538404|O,-1.5679174591,-0.7760748213,-2.4
 118467787|H,-0.6893854993,1.7371291535,0.7243536759|H,0.9473326285,1.7
 827194532,0.0154419843|H,0.7376652006,1.6633706926,1.7826381449|H,1.76
 4104728,-1.7059705337,0.8865296079|H,2.4040659516,-0.1930782913,0.1918
 438703|H,2.0741205797,-0.3010639727,1.942204721|H,-0.561419801,-1.7972
 061391,1.6804808231|H,-1.5589010679,-0.3180532588,1.6689647499|H,-0.15
 86172771,-0.4348210882,2.7588274413|H,0.648453966,-0.1909140709,-1.372
 0653614|H,0.0022034058,-1.6820367265,-0.6760319212|H,-2.2532429719,-0.
 6049835408,-0.4539215796|H,-1.5996271991,0.8915846789,-1.1665885553|H,
 -2.4240673382,-0.5847689143,-2.8098317097||Version=EM64W-G09RevD.01|St
 ate=1-A|HF=-328.7823039|RMSD=8.747e-009|RMSF=2.095e-006|Dipole=0.31163
 25,0.4905558,1.3159672|Quadrupole=3.5355149,-2.9260481,-0.6094668,-0.2
 857216,4.9515012,-1.3398513|PG=C01 [X(C5H14N1O1)]||@


 THEORY:  SUPPOSITION WHICH HAS SCIENTIFIC BASIS,
          BUT NOT EXPERIMENTALLY PROVEN.
 FACT:    A THEORY WHICH HAS BEEN PROVEN BY ENOUGH 
          MONEY TO PAY FOR THE EXPERIMENTS.

                          --  THE WIZARD OF ID
 Job cpu time:       0 days  0 hours  8 minutes 30.0 seconds.
 File lengths (MBytes):  RWF=     30 Int=      0 D2E=      0 Chk=      6 Scr=      1
 Normal termination of Gaussian 09 at Sat Aug 04 00:25:52 2018.
