 Entering Link 1 = C:\G09W\l1.exe PID=     27924.
  
 Copyright (c) 1988,1990,1992,1993,1995,1998,2003,2009,2013,
            Gaussian, Inc.  All Rights Reserved.
  
 This is part of the Gaussian(R) 09 program.  It is based on
 the Gaussian(R) 03 system (copyright 2003, Gaussian, Inc.),
 the Gaussian(R) 98 system (copyright 1998, Gaussian, Inc.),
 the Gaussian(R) 94 system (copyright 1995, Gaussian, Inc.),
 the Gaussian 92(TM) system (copyright 1992, Gaussian, Inc.),
 the Gaussian 90(TM) system (copyright 1990, Gaussian, Inc.),
 the Gaussian 88(TM) system (copyright 1988, Gaussian, Inc.),
 the Gaussian 86(TM) system (copyright 1986, Carnegie Mellon
 University), and the Gaussian 82(TM) system (copyright 1983,
 Carnegie Mellon University). Gaussian is a federally registered
 trademark of Gaussian, Inc.
  
 This software contains proprietary and confidential information,
 including trade secrets, belonging to Gaussian, Inc.
  
 This software is provided under written license and may be
 used, copied, transmitted, or stored only in accord with that
 written license.
  
 The following legend is applicable only to US Government
 contracts under FAR:
  
                    RESTRICTED RIGHTS LEGEND
  
 Use, reproduction and disclosure by the US Government is
 subject to restrictions as set forth in subparagraphs (a)
 and (c) of the Commercial Computer Software - Restricted
 Rights clause in FAR 52.227-19.
  
 Gaussian, Inc.
 340 Quinnipiac St., Bldg. 40, Wallingford CT 06492
  
  
 ---------------------------------------------------------------
 Warning -- This program may not be used in any manner that
 competes with the business of Gaussian, Inc. or will provide
 assistance to any competitor of Gaussian, Inc.  The licensee
 of this program is prohibited from giving any competitor of
 Gaussian, Inc. access to this program.  By using this program,
 the user acknowledges that Gaussian, Inc. is engaged in the
 business of creating and licensing software in the field of
 computational chemistry and represents and warrants to the
 licensee that it is not a competitor of Gaussian, Inc. and that
 it will not use this program in any manner prohibited above.
 ---------------------------------------------------------------
  

 Cite this work as:
 Gaussian 09, Revision D.01,
 M. J. Frisch, G. W. Trucks, H. B. Schlegel, G. E. Scuseria, 
 M. A. Robb, J. R. Cheeseman, G. Scalmani, V. Barone, B. Mennucci, 
 G. A. Petersson, H. Nakatsuji, M. Caricato, X. Li, H. P. Hratchian, 
 A. F. Izmaylov, J. Bloino, G. Zheng, J. L. Sonnenberg, M. Hada, 
 M. Ehara, K. Toyota, R. Fukuda, J. Hasegawa, M. Ishida, T. Nakajima, 
 Y. Honda, O. Kitao, H. Nakai, T. Vreven, J. A. Montgomery, Jr., 
 J. E. Peralta, F. Ogliaro, M. Bearpark, J. J. Heyd, E. Brothers, 
 K. N. Kudin, V. N. Staroverov, T. Keith, R. Kobayashi, J. Normand, 
 K. Raghavachari, A. Rendell, J. C. Burant, S. S. Iyengar, J. Tomasi, 
 M. Cossi, N. Rega, J. M. Millam, M. Klene, J. E. Knox, J. B. Cross, 
 V. Bakken, C. Adamo, J. Jaramillo, R. Gomperts, R. E. Stratmann, 
 O. Yazyev, A. J. Austin, R. Cammi, C. Pomelli, J. W. Ochterski, 
 R. L. Martin, K. Morokuma, V. G. Zakrzewski, G. A. Voth, 
 P. Salvador, J. J. Dannenberg, S. Dapprich, A. D. Daniels, 
 O. Farkas, J. B. Foresman, J. V. Ortiz, J. Cioslowski, 
 and D. J. Fox, Gaussian, Inc., Wallingford CT, 2013.
 
 ******************************************
 Gaussian 09:  EM64W-G09RevD.01 13-Apr-2013
                15-Aug-2018 
 ******************************************
 %Chk=Anth_365.chk
 %Mem=64GB
 %NProcShared=20
 Will use up to   20 processors via shared memory.
 -------------------------------------
 # RB3LYP/6-311++G** Opt Test prop=EFG
 -------------------------------------
 1/14=-1,18=20,19=15,26=3,38=1/1,3;
 2/9=110,12=2,17=6,18=5,40=1/2;
 3/5=4,6=6,7=1111,11=2,16=1,25=1,30=1,71=1,74=-5,116=1/1,2,3;
 4//1;
 5/5=2,38=5/2;
 6/7=2,8=2,9=2,10=2,14=1,28=1/1,2;
 7//1,2,3,16;
 1/14=-1,18=20,19=15,26=3/3(2);
 2/9=110/2;
 99//99;
 2/9=110/2;
 3/5=4,6=6,7=1111,11=2,16=1,25=1,30=1,71=1,74=-5,116=1/1,2,3;
 4/5=5,16=3,69=1/1;
 5/5=2,38=5/2;
 7//1,2,3,16;
 1/14=-1,18=20,19=15,26=3/3(-5);
 2/9=110/2;
 6/7=2,8=2,9=2,10=2,14=1,19=2,28=1/1,2;
 99/9=1/99;
 --------
 C9NH20O2
 --------
 Symbolic Z-matrix:
 Charge =  1 Multiplicity = 1
 N                     1.76183  -1.35119   1.8309 
 C                     2.45032   0.00209   1.87474 
 C                     2.74222  -2.40637   2.32285 
 C                     0.5654   -1.33386   2.7667 
 C                     1.3483   -1.71877   0.40662 
 C                     0.35652  -0.74021  -0.2401 
 O                     0.06938  -1.21554  -1.53235 
 C                    -0.77842  -0.57607  -2.39599 
 O                    -1.00397  -1.01937  -3.50341 
 C                    -1.40771   0.71198  -1.87566 
 C                    -2.35724   1.38851  -2.88019 
 C                    -2.9629    2.67927  -2.31108 
 H                     1.75706   0.82919   1.60687 
 H                     3.31708   0.03372   1.17636 
 H                     2.82998   0.22345   2.89801 
 H                     2.27758  -3.41852   2.32461 
 H                     3.64789  -2.44775   1.676 
 H                     3.08174  -2.19148   3.36147 
 H                     0.01927  -2.30386   2.73717 
 H                    -0.15106  -0.52327   2.50975 
 H                     0.88446  -1.15542   3.81866 
 H                     2.25649  -1.77568  -0.24036 
 H                     0.88923  -2.73652   0.40508 
 H                    -0.58961  -0.70304   0.3432 
 H                     0.8102    0.27161  -0.32492 
 H                    -1.99373   0.48587  -0.95451 
 H                    -0.59871   1.43919  -1.63107 
 H                    -1.80304   1.63208  -3.81866 
 H                    -3.18449   0.68786  -3.1484 
 H                    -3.64789   3.15826  -3.04815 
 H                    -3.55014   2.47492  -1.38676 
 H                    -2.1691    3.41852  -2.05728 
 

 GradGradGradGradGradGradGradGradGradGradGradGradGradGradGradGradGradGrad
 Berny optimization.
 Initialization pass.
                           ----------------------------
                           !    Initial Parameters    !
                           ! (Angstroms and Degrees)  !
 --------------------------                            --------------------------
 ! Name  Definition              Value          Derivative Info.                !
 --------------------------------------------------------------------------------
 ! R1    R(1,2)                  1.519          estimate D2E/DX2                !
 ! R2    R(1,3)                  1.522          estimate D2E/DX2                !
 ! R3    R(1,4)                  1.519          estimate D2E/DX2                !
 ! R4    R(1,5)                  1.528          estimate D2E/DX2                !
 ! R5    R(2,13)                 1.112          estimate D2E/DX2                !
 ! R6    R(2,14)                 1.1136         estimate D2E/DX2                !
 ! R7    R(2,15)                 1.1137         estimate D2E/DX2                !
 ! R8    R(3,16)                 1.1137         estimate D2E/DX2                !
 ! R9    R(3,17)                 1.1137         estimate D2E/DX2                !
 ! R10   R(3,18)                 1.1136         estimate D2E/DX2                !
 ! R11   R(4,19)                 1.1136         estimate D2E/DX2                !
 ! R12   R(4,20)                 1.1119         estimate D2E/DX2                !
 ! R13   R(4,21)                 1.1137         estimate D2E/DX2                !
 ! R14   R(5,6)                  1.5361         estimate D2E/DX2                !
 ! R15   R(5,22)                 1.1165         estimate D2E/DX2                !
 ! R16   R(5,23)                 1.1165         estimate D2E/DX2                !
 ! R17   R(6,7)                  1.4065         estimate D2E/DX2                !
 ! R18   R(6,24)                 1.1121         estimate D2E/DX2                !
 ! R19   R(6,25)                 1.1121         estimate D2E/DX2                !
 ! R20   R(7,8)                  1.3688         estimate D2E/DX2                !
 ! R21   R(8,9)                  1.214          estimate D2E/DX2                !
 ! R22   R(8,10)                 1.5251         estimate D2E/DX2                !
 ! R23   R(10,11)                1.539          estimate D2E/DX2                !
 ! R24   R(10,26)                1.1149         estimate D2E/DX2                !
 ! R25   R(10,27)                1.115          estimate D2E/DX2                !
 ! R26   R(11,12)                1.5352         estimate D2E/DX2                !
 ! R27   R(11,28)                1.1168         estimate D2E/DX2                !
 ! R28   R(11,29)                1.1168         estimate D2E/DX2                !
 ! R29   R(12,30)                1.1144         estimate D2E/DX2                !
 ! R30   R(12,31)                1.114          estimate D2E/DX2                !
 ! R31   R(12,32)                1.114          estimate D2E/DX2                !
 ! A1    A(2,1,3)              108.4426         estimate D2E/DX2                !
 ! A2    A(2,1,4)              109.2115         estimate D2E/DX2                !
 ! A3    A(2,1,5)              111.3395         estimate D2E/DX2                !
 ! A4    A(3,1,4)              108.4291         estimate D2E/DX2                !
 ! A5    A(3,1,5)              107.9886         estimate D2E/DX2                !
 ! A6    A(4,1,5)              111.3355         estimate D2E/DX2                !
 ! A7    A(1,2,13)             111.9095         estimate D2E/DX2                !
 ! A8    A(1,2,14)             111.1012         estimate D2E/DX2                !
 ! A9    A(1,2,15)             110.9853         estimate D2E/DX2                !
 ! A10   A(13,2,14)            108.2439         estimate D2E/DX2                !
 ! A11   A(13,2,15)            106.6207         estimate D2E/DX2                !
 ! A12   A(14,2,15)            107.7739         estimate D2E/DX2                !
 ! A13   A(1,3,16)             111.2125         estimate D2E/DX2                !
 ! A14   A(1,3,17)             111.2134         estimate D2E/DX2                !
 ! A15   A(1,3,18)             111.3485         estimate D2E/DX2                !
 ! A16   A(16,3,17)            107.8439         estimate D2E/DX2                !
 ! A17   A(16,3,18)            107.5232         estimate D2E/DX2                !
 ! A18   A(17,3,18)            107.5132         estimate D2E/DX2                !
 ! A19   A(1,4,19)             111.1            estimate D2E/DX2                !
 ! A20   A(1,4,20)             111.9286         estimate D2E/DX2                !
 ! A21   A(1,4,21)             110.9829         estimate D2E/DX2                !
 ! A22   A(19,4,20)            108.233          estimate D2E/DX2                !
 ! A23   A(19,4,21)            107.7654         estimate D2E/DX2                !
 ! A24   A(20,4,21)            106.6237         estimate D2E/DX2                !
 ! A25   A(1,5,6)              114.4526         estimate D2E/DX2                !
 ! A26   A(1,5,22)             109.4061         estimate D2E/DX2                !
 ! A27   A(1,5,23)             109.3812         estimate D2E/DX2                !
 ! A28   A(6,5,22)             108.2822         estimate D2E/DX2                !
 ! A29   A(6,5,23)             108.3397         estimate D2E/DX2                !
 ! A30   A(22,5,23)            106.6901         estimate D2E/DX2                !
 ! A31   A(5,6,7)              107.6582         estimate D2E/DX2                !
 ! A32   A(5,6,24)             110.4731         estimate D2E/DX2                !
 ! A33   A(5,6,25)             110.3845         estimate D2E/DX2                !
 ! A34   A(7,6,24)             108.633          estimate D2E/DX2                !
 ! A35   A(7,6,25)             108.704          estimate D2E/DX2                !
 ! A36   A(24,6,25)            110.8953         estimate D2E/DX2                !
 ! A37   A(6,7,8)              123.2477         estimate D2E/DX2                !
 ! A38   A(7,8,9)              121.3359         estimate D2E/DX2                !
 ! A39   A(7,8,10)             115.7774         estimate D2E/DX2                !
 ! A40   A(9,8,10)             122.8867         estimate D2E/DX2                !
 ! A41   A(8,10,11)            113.7767         estimate D2E/DX2                !
 ! A42   A(8,10,26)            109.1161         estimate D2E/DX2                !
 ! A43   A(8,10,27)            109.0453         estimate D2E/DX2                !
 ! A44   A(11,10,26)           107.706          estimate D2E/DX2                !
 ! A45   A(11,10,27)           107.7073         estimate D2E/DX2                !
 ! A46   A(26,10,27)           109.4151         estimate D2E/DX2                !
 ! A47   A(10,11,12)           111.7809         estimate D2E/DX2                !
 ! A48   A(10,11,28)           109.7678         estimate D2E/DX2                !
 ! A49   A(10,11,29)           109.7554         estimate D2E/DX2                !
 ! A50   A(12,11,28)           108.9007         estimate D2E/DX2                !
 ! A51   A(12,11,29)           108.9226         estimate D2E/DX2                !
 ! A52   A(28,11,29)           107.6141         estimate D2E/DX2                !
 ! A53   A(11,12,30)           111.0201         estimate D2E/DX2                !
 ! A54   A(11,12,31)           111.1821         estimate D2E/DX2                !
 ! A55   A(11,12,32)           111.1789         estimate D2E/DX2                !
 ! A56   A(30,12,31)           107.6744         estimate D2E/DX2                !
 ! A57   A(30,12,32)           107.6643         estimate D2E/DX2                !
 ! A58   A(31,12,32)           107.958          estimate D2E/DX2                !
 ! D1    D(3,1,2,13)          -175.2288         estimate D2E/DX2                !
 ! D2    D(3,1,2,14)            63.6474         estimate D2E/DX2                !
 ! D3    D(3,1,2,15)           -56.2509         estimate D2E/DX2                !
 ! D4    D(4,1,2,13)           -57.2526         estimate D2E/DX2                !
 ! D5    D(4,1,2,14)          -178.3764         estimate D2E/DX2                !
 ! D6    D(4,1,2,15)            61.7252         estimate D2E/DX2                !
 ! D7    D(5,1,2,13)            66.0993         estimate D2E/DX2                !
 ! D8    D(5,1,2,14)           -55.0244         estimate D2E/DX2                !
 ! D9    D(5,1,2,15)          -174.9228         estimate D2E/DX2                !
 ! D10   D(2,1,3,16)           179.1163         estimate D2E/DX2                !
 ! D11   D(2,1,3,17)           -60.6694         estimate D2E/DX2                !
 ! D12   D(2,1,3,18)            59.2174         estimate D2E/DX2                !
 ! D13   D(4,1,3,16)            60.6433         estimate D2E/DX2                !
 ! D14   D(4,1,3,17)          -179.1424         estimate D2E/DX2                !
 ! D15   D(4,1,3,18)           -59.2556         estimate D2E/DX2                !
 ! D16   D(5,1,3,16)           -60.1139         estimate D2E/DX2                !
 ! D17   D(5,1,3,17)            60.1004         estimate D2E/DX2                !
 ! D18   D(5,1,3,18)           179.9872         estimate D2E/DX2                !
 ! D19   D(2,1,4,19)           178.3922         estimate D2E/DX2                !
 ! D20   D(2,1,4,20)            57.2701         estimate D2E/DX2                !
 ! D21   D(2,1,4,21)           -61.7226         estimate D2E/DX2                !
 ! D22   D(3,1,4,19)           -63.6231         estimate D2E/DX2                !
 ! D23   D(3,1,4,20)           175.2547         estimate D2E/DX2                !
 ! D24   D(3,1,4,21)            56.2621         estimate D2E/DX2                !
 ! D25   D(5,1,4,19)            55.0379         estimate D2E/DX2                !
 ! D26   D(5,1,4,20)           -66.0843         estimate D2E/DX2                !
 ! D27   D(5,1,4,21)           174.9231         estimate D2E/DX2                !
 ! D28   D(2,1,5,6)            -60.8208         estimate D2E/DX2                !
 ! D29   D(2,1,5,22)            60.8847         estimate D2E/DX2                !
 ! D30   D(2,1,5,23)           177.4176         estimate D2E/DX2                !
 ! D31   D(3,1,5,6)           -179.7644         estimate D2E/DX2                !
 ! D32   D(3,1,5,22)           -58.0588         estimate D2E/DX2                !
 ! D33   D(3,1,5,23)            58.474          estimate D2E/DX2                !
 ! D34   D(4,1,5,6)             61.3109         estimate D2E/DX2                !
 ! D35   D(4,1,5,22)          -176.9835         estimate D2E/DX2                !
 ! D36   D(4,1,5,23)           -60.4506         estimate D2E/DX2                !
 ! D37   D(1,5,6,7)           -179.6246         estimate D2E/DX2                !
 ! D38   D(1,5,6,24)           -61.1505         estimate D2E/DX2                !
 ! D39   D(1,5,6,25)            61.8656         estimate D2E/DX2                !
 ! D40   D(22,5,6,7)            58.0563         estimate D2E/DX2                !
 ! D41   D(22,5,6,24)          176.5304         estimate D2E/DX2                !
 ! D42   D(22,5,6,25)          -60.4536         estimate D2E/DX2                !
 ! D43   D(23,5,6,7)           -57.2947         estimate D2E/DX2                !
 ! D44   D(23,5,6,24)           61.1794         estimate D2E/DX2                !
 ! D45   D(23,5,6,25)         -175.8045         estimate D2E/DX2                !
 ! D46   D(5,6,7,8)           -179.5642         estimate D2E/DX2                !
 ! D47   D(24,6,7,8)            60.7857         estimate D2E/DX2                !
 ! D48   D(25,6,7,8)           -59.9801         estimate D2E/DX2                !
 ! D49   D(6,7,8,9)           -179.8252         estimate D2E/DX2                !
 ! D50   D(6,7,8,10)             0.2118         estimate D2E/DX2                !
 ! D51   D(7,8,10,11)         -179.7107         estimate D2E/DX2                !
 ! D52   D(7,8,10,26)          -59.417          estimate D2E/DX2                !
 ! D53   D(7,8,10,27)           60.0441         estimate D2E/DX2                !
 ! D54   D(9,8,10,11)            0.3269         estimate D2E/DX2                !
 ! D55   D(9,8,10,26)          120.6207         estimate D2E/DX2                !
 ! D56   D(9,8,10,27)         -119.9183         estimate D2E/DX2                !
 ! D57   D(8,10,11,12)        -179.943          estimate D2E/DX2                !
 ! D58   D(8,10,11,28)         -58.9936         estimate D2E/DX2                !
 ! D59   D(8,10,11,29)          59.0883         estimate D2E/DX2                !
 ! D60   D(26,10,11,12)         58.9723         estimate D2E/DX2                !
 ! D61   D(26,10,11,28)        179.9217         estimate D2E/DX2                !
 ! D62   D(26,10,11,29)        -61.9963         estimate D2E/DX2                !
 ! D63   D(27,10,11,12)        -58.9469         estimate D2E/DX2                !
 ! D64   D(27,10,11,28)         62.0025         estimate D2E/DX2                !
 ! D65   D(27,10,11,29)       -179.9156         estimate D2E/DX2                !
 ! D66   D(10,11,12,30)       -179.993          estimate D2E/DX2                !
 ! D67   D(10,11,12,31)        -60.1432         estimate D2E/DX2                !
 ! D68   D(10,11,12,32)         60.172          estimate D2E/DX2                !
 ! D69   D(28,11,12,30)         58.5552         estimate D2E/DX2                !
 ! D70   D(28,11,12,31)        178.405          estimate D2E/DX2                !
 ! D71   D(28,11,12,32)        -61.2798         estimate D2E/DX2                !
 ! D72   D(29,11,12,30)        -58.542          estimate D2E/DX2                !
 ! D73   D(29,11,12,31)         61.3079         estimate D2E/DX2                !
 ! D74   D(29,11,12,32)       -178.377          estimate D2E/DX2                !
 --------------------------------------------------------------------------------
 Trust Radius=3.00D-01 FncErr=1.00D-07 GrdErr=1.00D-06
 Number of steps in this run=    173 maximum allowed number of steps=    192.
 GradGradGradGradGradGradGradGradGradGradGradGradGradGradGradGradGradGrad

                          Input orientation:                          
 ---------------------------------------------------------------------
 Center     Atomic      Atomic             Coordinates (Angstroms)
 Number     Number       Type             X           Y           Z
 ---------------------------------------------------------------------
      1          7           0        1.761827   -1.351188    1.830903
      2          6           0        2.450322    0.002085    1.874740
      3          6           0        2.742220   -2.406373    2.322846
      4          6           0        0.565395   -1.333856    2.766702
      5          6           0        1.348304   -1.718767    0.406620
      6          6           0        0.356516   -0.740207   -0.240098
      7          8           0        0.069379   -1.215538   -1.532346
      8          6           0       -0.778424   -0.576072   -2.395989
      9          8           0       -1.003974   -1.019367   -3.503408
     10          6           0       -1.407707    0.711979   -1.875660
     11          6           0       -2.357238    1.388509   -2.880185
     12          6           0       -2.962896    2.679267   -2.311081
     13          1           0        1.757063    0.829192    1.606874
     14          1           0        3.317075    0.033722    1.176358
     15          1           0        2.829982    0.223449    2.898011
     16          1           0        2.277575   -3.418522    2.324605
     17          1           0        3.647889   -2.447749    1.676004
     18          1           0        3.081736   -2.191476    3.361472
     19          1           0        0.019273   -2.303860    2.737172
     20          1           0       -0.151062   -0.523268    2.509745
     21          1           0        0.884456   -1.155422    3.818661
     22          1           0        2.256492   -1.775676   -0.240359
     23          1           0        0.889226   -2.736515    0.405083
     24          1           0       -0.589606   -0.703044    0.343201
     25          1           0        0.810196    0.271605   -0.324917
     26          1           0       -1.993734    0.485866   -0.954513
     27          1           0       -0.598706    1.439190   -1.631066
     28          1           0       -1.803035    1.632076   -3.818661
     29          1           0       -3.184488    0.687861   -3.148398
     30          1           0       -3.647889    3.158262   -3.048155
     31          1           0       -3.550138    2.474922   -1.386763
     32          1           0       -2.169097    3.418522   -2.057284
 ---------------------------------------------------------------------
                    Distance matrix (angstroms):
                    1          2          3          4          5
     1  N    0.000000
     2  C    1.518978   0.000000
     3  C    1.522036   2.467118   0.000000
     4  C    1.519036   2.476547   2.466955   0.000000
     5  C    1.527972   2.516178   2.467332   2.516166   0.000000
     6  C    2.576285   3.067175   3.877676   3.071953   1.536056
     7  O    3.767522   4.331250   4.839904   4.329185   2.376653
     8  C    4.992023   5.384997   6.165415   5.388271   3.699100
     9  O    6.017860   6.473021   7.064205   6.471175   4.616350
    10  C    5.295395   5.427139   6.676336   5.443353   4.325844
    11  C    6.831324   6.902472   8.214447   6.916675   5.847161
    12  C    7.464825   7.347879   8.937861   7.371423   6.731645
    13  H    2.191864   1.111965   3.457171   2.728379   2.846013
    14  H    2.182934   1.113552   2.756621   3.459943   2.745865
    15  H    2.181549   1.113655   2.693414   2.751508   3.489212
    16  H    2.187146   3.454385   1.113707   2.733650   2.726055
    17  H    2.187160   2.734109   1.113711   3.454294   2.725957
    18  H    2.188809   2.724108   1.113641   2.724194   3.458235
    19  H    2.182980   3.459938   2.756196   1.113566   2.745930
    20  H    2.192127   2.728814   3.457180   1.111931   2.846129
    21  H    2.181579   2.751470   2.693256   1.113668   3.489203
    22  H    2.171407   2.769774   2.683977   3.478136   1.116524
    23  H    2.171066   3.478052   2.687079   2.765784   1.116497
    24  H    2.857024   3.476202   4.233366   2.757772   2.188883
    25  H    2.861227   2.757017   4.232603   3.492211   2.187759
    26  H    5.023699   5.290402   6.444795   4.869083   4.228748
    27  H    5.034238   4.863385   6.448532   5.327784   4.232695
    28  H    7.316125   7.291278   8.642136   7.600870   6.245966
    29  H    7.308707   7.579795   8.639136   7.289538   6.243093
    30  H    8.567694   8.448936  10.032263   8.470150   7.789918
    31  H    7.294482   7.263460   8.785329   6.978229   6.693130
    32  H    7.302075   6.962175   8.788400   7.302971   6.695870
                    6          7          8          9         10
     6  C    0.000000
     7  O    1.406518   0.000000
     8  C    2.441904   1.368783   0.000000
     9  O    3.546555   2.252921   1.213985   0.000000
    10  C    2.810052   2.452543   1.525062   2.410420   0.000000
    11  C    4.343495   3.806074   2.566452   2.831536   1.538952
    12  C    5.196178   4.997062   3.921270   4.351886   2.545275
    13  H    2.799259   4.109002   4.942304   6.095529   4.707181
    14  H    3.371976   4.409678   5.468695   6.456057   5.665546
    15  H    4.110279   5.414765   6.456490   7.564521   6.401922
    16  H    4.176307   4.960377   6.301005   7.105649   6.948710
    17  H    4.173761   4.961611   6.298932   7.106786   6.939542
    18  H    4.743871   5.828911   7.117494   8.074246   7.484163
    19  H    3.379775   4.406329   5.474570   6.453045   5.692958
    20  H    2.804699   4.106864   4.945968   6.093569   4.726179
    21  H    4.113958   5.413062   6.459310   7.562895   6.416112
    22  H    2.163817   2.601240   3.911075   4.674412   4.721122
    23  H    2.164552   2.595988   3.910828   4.670022   4.729672
    24  H    1.112100   2.052946   2.748624   3.881773   2.755889
    25  H    1.112108   2.053847   2.744378   3.880802   2.741866
    26  H    2.745418   2.735891   2.163919   3.121252   1.114929
    27  H    2.756268   2.739282   2.163027   3.116795   1.114964
    28  H    4.805986   4.103910   2.819528   2.787119   2.185890
    29  H    4.799614   4.101488   2.820069   2.792007   2.185725
    30  H    6.254479   5.936824   4.754409   4.964889   3.518162
    31  H    5.187855   5.171227   4.243760   4.813854   2.817268
    32  H    5.193834   5.173089   4.243286   4.810784   2.817459
                   11         12         13         14         15
    11  C    0.000000
    12  C    1.535173   0.000000
    13  H    6.113428   6.407118   0.000000
    14  H    7.105548   7.655010   1.803262   0.000000
    15  H    7.851889   8.168422   1.784689   1.799262   0.000000
    16  H    8.466338   9.280903   4.339256   3.783784   3.727989
    17  H    8.457972   9.267449   3.783959   2.552799   3.049192
    18  H    9.019812   9.614550   3.736015   3.127557   2.471849
    19  H    7.129943   7.694787   3.756794   4.333120   3.783285
    20  H    6.129719   6.434517   2.507043   3.757144   3.097573
    21  H    7.864776   8.190280   3.097118   3.783314   2.556160
    22  H    6.186053   7.167734   3.232188   2.530977   3.764938
    23  H    6.192603   7.179630   3.861568   3.763446   4.329274
    24  H    4.229578   4.910982   3.074325   4.061912   4.367954
    25  H    4.220131   4.896724   2.222448   2.931699   3.803830
    26  H    2.157571   2.755097   4.554893   5.740186   6.178919
    27  H    2.157615   2.754924   4.050432   5.018995   5.809171
    28  H    1.116782   2.171332   6.538758   7.329425   8.280263
    29  H    1.116776   2.171612   6.859411   7.835926   8.540995
    30  H    2.196820   1.114419   7.503824   8.724677   9.269996
    31  H    2.198548   1.113990   6.311630   7.725779   8.008392
    32  H    2.198526   1.114014   5.961998   7.211893   7.730086
                   16         17         18         19         20
    16  H    0.000000
    17  H    1.800234   0.000000
    18  H    1.796499   1.796387   0.000000
    19  H    2.551982   3.783337   3.127469   0.000000
    20  H    3.783524   4.339445   3.736220   1.803121   0.000000
    21  H    3.048706   3.727955   2.471936   1.799186   1.784707
    22  H    3.046051   2.461730   3.718481   3.761624   3.863666
    23  H    2.465200   3.051040   3.720807   2.526390   3.226494
    24  H    4.418202   4.772497   4.980376   2.943543   2.217781
    25  H    4.773909   4.410337   4.981579   4.078599   3.096958
    26  H    6.651386   6.881397   7.180270   5.046118   4.051527
    27  H    6.893308   6.639170   7.186990   5.785657   4.604122
    28  H    8.938660   8.749222   9.488669   7.860747   6.886454
    29  H    8.755014   8.932429   9.483383   7.338557   6.533230
    30  H   10.355277  10.342795  10.723379   8.760871   7.528062
    31  H    9.081254   9.242555   9.396955   7.251503   5.977093
    32  H    9.258456   9.065754   9.402459   7.779552   6.361441
                   21         22         23         24         25
    21  H    0.000000
    22  H    4.329300   0.000000
    23  H    3.761967   1.791431   0.000000
    24  H    3.802148   3.096991   2.515110   0.000000
    25  H    4.383054   2.508043   3.096439   1.831876   0.000000
    26  H    5.810421   4.867136   4.532516   2.251476   2.881722
    27  H    6.215409   4.519025   4.878151   2.913242   2.248174
    28  H    8.562794   6.395059   6.646267   4.924052   4.570132
    29  H    8.276105   6.643039   6.399119   4.567197   4.909462
    30  H    9.289951   8.190798   8.201138   5.980307   5.968529
    31  H    7.742187   7.286891   7.076563   4.675146   4.999464
    32  H    8.048098   7.061639   7.300758   5.024383   4.666944
                   26         27         28         29         30
    26  H    0.000000
    27  H    1.820070   0.000000
    28  H    3.090875   2.504633   0.000000
    29  H    2.504362   3.090803   1.802556   0.000000
    30  H    3.776409   3.776356   2.515235   2.515486   0.000000
    31  H    2.562338   3.137415   3.110769   2.535872   1.799092
    32  H    3.138045   2.562332   2.535318   3.110958   1.798996
                   31         32
    31  H    0.000000
    32  H    1.802014   0.000000
 Stoichiometry    C9H20NO2(1+)
 Framework group  C1[X(C9H20NO2)]
 Deg. of freedom    90
 Full point group                 C1      NOp   1
 Largest Abelian subgroup         C1      NOp   1
 Largest concise Abelian subgroup C1      NOp   1
                         Standard orientation:                         
 ---------------------------------------------------------------------
 Center     Atomic      Atomic             Coordinates (Angstroms)
 Number     Number       Type             X           Y           Z
 ---------------------------------------------------------------------
      1          7           0        2.896300    0.258153   -0.000031
      2          6           0        2.817626    1.154647   -1.223715
      3          6           0        4.234540   -0.466646   -0.019375
      4          6           0        2.832450    1.115255    1.252474
      5          6           0        1.789152   -0.794852   -0.010107
      6          6           0        0.364774   -0.219982    0.001630
      7          8           0       -0.532496   -1.303123   -0.000695
      8          6           0       -1.892774   -1.150772   -0.000862
      9          8           0       -2.635601   -2.110963    0.000258
     10          6           0       -2.399011    0.287814   -0.003414
     11          6           0       -3.933431    0.405626    0.003605
     12          6           0       -4.392293    1.870612   -0.000686
     13          1           0        1.896403    1.777395   -1.223296
     14          1           0        2.832491    0.554794   -2.161774
     15          1           0        3.678857    1.859890   -1.257488
     16          1           0        4.347740   -1.127583    0.869834
     17          1           0        4.337020   -1.099373   -0.930148
     18          1           0        5.085061    0.252222   -0.013288
     19          1           0        2.858718    0.485837    2.170718
     20          1           0        1.911391    1.737418    1.283383
     21          1           0        3.694158    1.819254    1.298303
     22          1           0        1.899023   -1.440027   -0.914709
     23          1           0        1.905518   -1.463320    0.876559
     24          1           0        0.195053    0.380041    0.922462
     25          1           0        0.186745    0.392555   -0.909352
     26          1           0       -2.014550    0.811782    0.902518
     27          1           0       -2.023433    0.804059   -0.917513
     28          1           0       -4.355821   -0.108392   -0.893376
     29          1           0       -4.346754   -0.100693    0.909140
     30          1           0       -5.504464    1.941164    0.004595
     31          1           0       -4.014709    2.413311    0.895909
     32          1           0       -4.023967    2.405082   -0.906062
 ---------------------------------------------------------------------
 Rotational constants (GHZ):      1.6800678      0.3361130      0.3009649
 Standard basis: 6-311++G(d,p) (5D, 7F)
 There are   416 symmetry adapted cartesian basis functions of A   symmetry.
 There are   404 symmetry adapted basis functions of A   symmetry.
   404 basis functions,   612 primitive gaussians,   416 cartesian basis functions
    48 alpha electrons       48 beta electrons
       nuclear repulsion energy       750.7166271241 Hartrees.
 NAtoms=   32 NActive=   32 NUniq=   32 SFac= 1.00D+00 NAtFMM=   60 NAOKFM=F Big=F
 Integral buffers will be    131072 words long.
 Raffenetti 2 integral format.
 Two-electron integral symmetry is turned on.
 One-electron integrals computed using PRISM.
 NBasis=   404 RedAO= T EigKep=  2.39D-06  NBF=   404
 NBsUse=   404 1.00D-06 EigRej= -1.00D+00 NBFU=   404
 ExpMin= 3.60D-02 ExpMax= 8.59D+03 ExpMxC= 1.30D+03 IAcc=3 IRadAn=         5 AccDes= 0.00D+00
 Harris functional with IExCor=  402 and IRadAn=       5 diagonalized for initial guess.
 HarFok:  IExCor=  402 AccDes= 0.00D+00 IRadAn=         5 IDoV= 1 UseB2=F ITyADJ=14
 ICtDFT=  3500011 ScaDFX=  1.000000  1.000000  1.000000  1.000000
 FoFCou: FMM=F IPFlag=           0 FMFlag=      100000 FMFlg1=           0
         NFxFlg=           0 DoJE=T BraDBF=F KetDBF=T FulRan=T
         wScrn=  0.000000 ICntrl=     500 IOpCl=  0 I1Cent=   200000004 NGrid=           0
         NMat0=    1 NMatS0=      1 NMatT0=    0 NMatD0=    1 NMtDS0=    0 NMtDT0=    0
 Petite list used in FoFCou.
 Keep R1 ints in memory in canonical form, NReq=3383283777.
 Requested convergence on RMS density matrix=1.00D-08 within 128 cycles.
 Requested convergence on MAX density matrix=1.00D-06.
 Requested convergence on             energy=1.00D-06.
 No special actions if energy rises.
 SCF Done:  E(RB3LYP) =  -560.106228029     A.U. after   13 cycles
            NFock= 13  Conv=0.67D-08     -V/T= 2.0058

 **********************************************************************

            Population analysis using the SCF density.

 **********************************************************************

 Orbital symmetries:
       Occupied  (A) (A) (A) (A) (A) (A) (A) (A) (A) (A) (A) (A)
                 (A) (A) (A) (A) (A) (A) (A) (A) (A) (A) (A) (A)
                 (A) (A) (A) (A) (A) (A) (A) (A) (A) (A) (A) (A)
                 (A) (A) (A) (A) (A) (A) (A) (A) (A) (A) (A) (A)
       Virtual   (A) (A) (A) (A) (A) (A) (A) (A) (A) (A) (A) (A)
                 (A) (A) (A) (A) (A) (A) (A) (A) (A) (A) (A) (A)
                 (A) (A) (A) (A) (A) (A) (A) (A) (A) (A) (A) (A)
                 (A) (A) (A) (A) (A) (A) (A) (A) (A) (A) (A) (A)
                 (A) (A) (A) (A) (A) (A) (A) (A) (A) (A) (A) (A)
                 (A) (A) (A) (A) (A) (A) (A) (A) (A) (A) (A) (A)
                 (A) (A) (A) (A) (A) (A) (A) (A) (A) (A) (A) (A)
                 (A) (A) (A) (A) (A) (A) (A) (A) (A) (A) (A) (A)
                 (A) (A) (A) (A) (A) (A) (A) (A) (A) (A) (A) (A)
                 (A) (A) (A) (A) (A) (A) (A) (A) (A) (A) (A) (A)
                 (A) (A) (A) (A) (A) (A) (A) (A) (A) (A) (A) (A)
                 (A) (A) (A) (A) (A) (A) (A) (A) (A) (A) (A) (A)
                 (A) (A) (A) (A) (A) (A) (A) (A) (A) (A) (A) (A)
                 (A) (A) (A) (A) (A) (A) (A) (A) (A) (A) (A) (A)
                 (A) (A) (A) (A) (A) (A) (A) (A) (A) (A) (A) (A)
                 (A) (A) (A) (A) (A) (A) (A) (A) (A) (A) (A) (A)
                 (A) (A) (A) (A) (A) (A) (A) (A) (A) (A) (A) (A)
                 (A) (A) (A) (A) (A) (A) (A) (A) (A) (A) (A) (A)
                 (A) (A) (A) (A) (A) (A) (A) (A) (A) (A) (A) (A)
                 (A) (A) (A) (A) (A) (A) (A) (A) (A) (A) (A) (A)
                 (A) (A) (A) (A) (A) (A) (A) (A) (A) (A) (A) (A)
                 (A) (A) (A) (A) (A) (A) (A) (A) (A) (A) (A) (A)
                 (A) (A) (A) (A) (A) (A) (A) (A) (A) (A) (A) (A)
                 (A) (A) (A) (A) (A) (A) (A) (A) (A) (A) (A) (A)
                 (A) (A) (A) (A) (A) (A) (A) (A) (A) (A) (A) (A)
                 (A) (A) (A) (A) (A) (A) (A) (A) (A) (A) (A) (A)
                 (A) (A) (A) (A) (A) (A) (A) (A) (A) (A) (A) (A)
                 (A) (A) (A) (A) (A) (A) (A) (A) (A) (A) (A) (A)
                 (A) (A) (A) (A) (A) (A) (A) (A) (A) (A) (A) (A)
                 (A) (A) (A) (A) (A) (A) (A) (A)
 The electronic state is 1-A.
 Alpha  occ. eigenvalues --  -19.29886 -19.22129 -14.63592 -10.42002 -10.40897
 Alpha  occ. eigenvalues --  -10.40670 -10.40664 -10.40453 -10.40404 -10.30169
 Alpha  occ. eigenvalues --  -10.26763 -10.25245  -1.23163  -1.19336  -1.14181
 Alpha  occ. eigenvalues --   -0.95341  -0.92137  -0.92013  -0.89796  -0.85596
 Alpha  occ. eigenvalues --   -0.80939  -0.79112  -0.73136  -0.70366  -0.69390
 Alpha  occ. eigenvalues --   -0.69178  -0.67208  -0.66060  -0.62201  -0.61490
 Alpha  occ. eigenvalues --   -0.60622  -0.58578  -0.58540  -0.58025  -0.57841
 Alpha  occ. eigenvalues --   -0.57644  -0.57542  -0.55682  -0.54337  -0.51952
 Alpha  occ. eigenvalues --   -0.50425  -0.49537  -0.48785  -0.44548  -0.43509
 Alpha  occ. eigenvalues --   -0.42800  -0.42610  -0.38712
 Alpha virt. eigenvalues --   -0.15889  -0.13808  -0.12529  -0.12465  -0.12019
 Alpha virt. eigenvalues --   -0.11556  -0.11395  -0.11256  -0.10622  -0.09179
 Alpha virt. eigenvalues --   -0.08579  -0.07789  -0.06831  -0.06354  -0.06078
 Alpha virt. eigenvalues --   -0.05312  -0.05094  -0.04737  -0.04612  -0.04239
 Alpha virt. eigenvalues --   -0.04203  -0.02703  -0.02481  -0.02135  -0.02099
 Alpha virt. eigenvalues --   -0.01889  -0.01451  -0.01260  -0.00827  -0.00780
 Alpha virt. eigenvalues --   -0.00750  -0.00471   0.00723   0.00820   0.01214
 Alpha virt. eigenvalues --    0.01629   0.01917   0.02003   0.02620   0.03179
 Alpha virt. eigenvalues --    0.03446   0.03853   0.04042   0.04516   0.04543
 Alpha virt. eigenvalues --    0.04892   0.05078   0.05163   0.05349   0.05481
 Alpha virt. eigenvalues --    0.05813   0.06114   0.06305   0.07031   0.07085
 Alpha virt. eigenvalues --    0.07383   0.07866   0.08278   0.08773   0.08950
 Alpha virt. eigenvalues --    0.09421   0.09616   0.10026   0.10133   0.10762
 Alpha virt. eigenvalues --    0.11099   0.11375   0.11433   0.12156   0.12428
 Alpha virt. eigenvalues --    0.12775   0.13758   0.14501   0.14748   0.15920
 Alpha virt. eigenvalues --    0.16102   0.16911   0.17088   0.17638   0.17904
 Alpha virt. eigenvalues --    0.18709   0.18855   0.19324   0.19699   0.21841
 Alpha virt. eigenvalues --    0.22135   0.22413   0.22617   0.23643   0.24955
 Alpha virt. eigenvalues --    0.25068   0.25773   0.26069   0.26334   0.27593
 Alpha virt. eigenvalues --    0.27987   0.28794   0.31151   0.31762   0.33542
 Alpha virt. eigenvalues --    0.33793   0.34208   0.35905   0.36380   0.36651
 Alpha virt. eigenvalues --    0.37648   0.39233   0.39318   0.41219   0.41263
 Alpha virt. eigenvalues --    0.42412   0.42994   0.43261   0.43730   0.43897
 Alpha virt. eigenvalues --    0.45443   0.47351   0.47559   0.47987   0.48614
 Alpha virt. eigenvalues --    0.48970   0.49329   0.50014   0.50124   0.51983
 Alpha virt. eigenvalues --    0.52920   0.53784   0.54659   0.56874   0.57026
 Alpha virt. eigenvalues --    0.57462   0.57630   0.57795   0.58392   0.59104
 Alpha virt. eigenvalues --    0.59763   0.60313   0.60963   0.61711   0.62050
 Alpha virt. eigenvalues --    0.63289   0.63717   0.64448   0.65939   0.67273
 Alpha virt. eigenvalues --    0.68772   0.69264   0.70293   0.71033   0.73970
 Alpha virt. eigenvalues --    0.76726   0.79517   0.80273   0.83266   0.85076
 Alpha virt. eigenvalues --    0.85379   0.87748   0.88179   0.90273   0.91190
 Alpha virt. eigenvalues --    0.92049   0.94564   0.94878   1.00293   1.02703
 Alpha virt. eigenvalues --    1.03661   1.04370   1.05319   1.10310   1.12471
 Alpha virt. eigenvalues --    1.14777   1.15107   1.16680   1.19856   1.21092
 Alpha virt. eigenvalues --    1.21165   1.23583   1.23697   1.25462   1.26432
 Alpha virt. eigenvalues --    1.27879   1.28521   1.30706   1.30981   1.32341
 Alpha virt. eigenvalues --    1.33238   1.34045   1.36196   1.36722   1.37106
 Alpha virt. eigenvalues --    1.38785   1.39052   1.40399   1.41477   1.42271
 Alpha virt. eigenvalues --    1.43893   1.44165   1.46235   1.46508   1.46967
 Alpha virt. eigenvalues --    1.48073   1.48491   1.48778   1.49351   1.49507
 Alpha virt. eigenvalues --    1.51041   1.51388   1.52708   1.54651   1.54751
 Alpha virt. eigenvalues --    1.56073   1.56630   1.57862   1.58656   1.61746
 Alpha virt. eigenvalues --    1.63103   1.63126   1.63360   1.64178   1.66032
 Alpha virt. eigenvalues --    1.67292   1.68877   1.70286   1.71283   1.75793
 Alpha virt. eigenvalues --    1.77652   1.79779   1.81685   1.81915   1.83420
 Alpha virt. eigenvalues --    1.84819   1.86113   1.87182   1.89935   1.91960
 Alpha virt. eigenvalues --    1.93338   1.95025   1.96477   1.98178   1.98552
 Alpha virt. eigenvalues --    2.00405   2.01228   2.02936   2.03754   2.05980
 Alpha virt. eigenvalues --    2.07842   2.08733   2.11481   2.12585   2.15331
 Alpha virt. eigenvalues --    2.20882   2.22916   2.23200   2.23309   2.24112
 Alpha virt. eigenvalues --    2.25072   2.25158   2.27935   2.27970   2.28626
 Alpha virt. eigenvalues --    2.28770   2.32527   2.32997   2.34419   2.35206
 Alpha virt. eigenvalues --    2.36694   2.36813   2.39129   2.40549   2.41230
 Alpha virt. eigenvalues --    2.42878   2.44579   2.45602   2.47356   2.47687
 Alpha virt. eigenvalues --    2.48510   2.48846   2.52306   2.54888   2.56136
 Alpha virt. eigenvalues --    2.58250   2.59040   2.59590   2.61390   2.62740
 Alpha virt. eigenvalues --    2.62769   2.63488   2.64362   2.65047   2.67254
 Alpha virt. eigenvalues --    2.70080   2.73023   2.74736   2.77349   2.79567
 Alpha virt. eigenvalues --    2.81091   2.82397   2.85901   2.87392   2.89999
 Alpha virt. eigenvalues --    2.92316   2.92577   2.97260   2.99699   3.00412
 Alpha virt. eigenvalues --    3.07951   3.10496   3.10942   3.16708   3.25445
 Alpha virt. eigenvalues --    3.32482   3.33327   3.37273   3.38158   3.41374
 Alpha virt. eigenvalues --    3.47187   3.51491   3.52537   3.52980   3.54681
 Alpha virt. eigenvalues --    3.56636   3.57616   3.57862   3.58525   3.63317
 Alpha virt. eigenvalues --    3.67049   3.68039   3.68352   3.73349   3.82844
 Alpha virt. eigenvalues --    3.90143   4.00792   4.06761   4.08890   4.23597
 Alpha virt. eigenvalues --    4.46917   4.47909   4.49990   4.92227   4.97059
 Alpha virt. eigenvalues --    5.10911   5.22423   5.50074   5.79453  23.64130
 Alpha virt. eigenvalues --   23.68021  23.69694  23.69900  23.70060  23.71895
 Alpha virt. eigenvalues --   23.74348  23.77604  23.83841  35.22665  49.79268
 Alpha virt. eigenvalues --   49.89277
          Condensed to atoms (all electrons):
               1          2          3          4          5          6
     1  N    6.623391   0.267510   0.275535   0.269167   0.044369  -0.031481
     2  C    0.267510   5.582384  -0.166440  -0.157103  -0.058458  -0.133269
     3  C    0.275535  -0.166440   5.645563  -0.168383   0.458932  -0.800555
     4  C    0.269167  -0.157103  -0.168383   5.579520  -0.100021  -0.097799
     5  C    0.044369  -0.058458   0.458932  -0.100021  13.808398  -6.555998
     6  C   -0.031481  -0.133269  -0.800555  -0.097799  -6.555998  12.742116
     7  O    0.014358  -0.008745   0.022089  -0.008723   0.334361  -0.274362
     8  C   -0.009836  -0.014102   0.003779  -0.013750   0.239159  -0.197357
     9  O    0.000338   0.000202  -0.001027   0.000182  -0.090745   0.097871
    10  C   -0.043999  -0.043146  -0.052529  -0.037958  -1.482205   1.337289
    11  C   -0.010521  -0.009833  -0.006714  -0.008503  -0.627343  -0.578729
    12  C   -0.000462  -0.000559   0.000600  -0.000610   0.035054  -0.012184
    13  H   -0.012694   0.366782   0.009097  -0.005637  -0.045329   0.048160
    14  H    0.003352   0.369928  -0.012899   0.019741   0.011579  -0.029508
    15  H   -0.023856   0.395985  -0.012393  -0.024216   0.010803   0.016682
    16  H   -0.009933   0.019410   0.376702  -0.017157  -0.023851   0.012700
    17  H   -0.010109  -0.017222   0.377929   0.019751  -0.018194   0.006224
    18  H   -0.008236  -0.021795   0.394948  -0.022308   0.045830  -0.026607
    19  H    0.002283   0.019887  -0.012680   0.371726   0.027291  -0.043064
    20  H   -0.012487  -0.005967   0.009659   0.366495  -0.046529   0.048179
    21  H   -0.023244  -0.024225  -0.012106   0.394982   0.007950   0.018894
    22  H    0.009650  -0.025926  -0.002806   0.017613   0.274465   0.040915
    23  H    0.008641   0.018687  -0.002480  -0.024485   0.313364   0.007784
    24  H   -0.018182  -0.004365   0.001170  -0.034851  -0.020817   0.243656
    25  H   -0.020981  -0.031290   0.002865  -0.000711   0.056669   0.195113
    26  H    0.000703   0.000708   0.001105   0.003194   0.028543   0.035678
    27  H    0.000703   0.002609   0.000903  -0.000059   0.007503   0.022516
    28  H   -0.000045  -0.000082  -0.000064  -0.000126   0.001390   0.007041
    29  H   -0.000069  -0.000160  -0.000089  -0.000096  -0.000575   0.005712
    30  H   -0.000031  -0.000050  -0.000006  -0.000046  -0.001699  -0.007399
    31  H    0.000043   0.000016   0.000011   0.000040   0.001740  -0.000363
    32  H    0.000029   0.000018   0.000002   0.000009   0.001368  -0.000044
               7          8          9         10         11         12
     1  N    0.014358  -0.009836   0.000338  -0.043999  -0.010521  -0.000462
     2  C   -0.008745  -0.014102   0.000202  -0.043146  -0.009833  -0.000559
     3  C    0.022089   0.003779  -0.001027  -0.052529  -0.006714   0.000600
     4  C   -0.008723  -0.013750   0.000182  -0.037958  -0.008503  -0.000610
     5  C    0.334361   0.239159  -0.090745  -1.482205  -0.627343   0.035054
     6  C   -0.274362  -0.197357   0.097871   1.337289  -0.578729  -0.012184
     7  O    8.270333   0.161842  -0.056170  -0.354098   0.022324   0.019711
     8  C    0.161842   6.066877   0.369411  -0.359119  -0.362947  -0.005894
     9  O   -0.056170   0.369411   7.899326   0.036168  -0.035507   0.016088
    10  C   -0.354098  -0.359119   0.036168   7.607014  -1.721008   0.188314
    11  C    0.022324  -0.362947  -0.035507  -1.721008   9.626125  -0.440382
    12  C    0.019711  -0.005894   0.016088   0.188314  -0.440382   5.648708
    13  H   -0.004202  -0.004858   0.000309   0.003336   0.001924  -0.001048
    14  H    0.003110  -0.001308  -0.000141  -0.000782  -0.000048   0.000115
    15  H    0.000314   0.001021  -0.000007  -0.001250  -0.000357   0.000023
    16  H   -0.000218   0.000421   0.000018   0.001470   0.000197  -0.000009
    17  H   -0.000218   0.000443   0.000019   0.000969   0.000093  -0.000008
    18  H    0.001137   0.000452  -0.000028  -0.001916  -0.000251   0.000031
    19  H    0.002958  -0.001334  -0.000127  -0.002313  -0.000641   0.000119
    20  H   -0.003925  -0.004395   0.000287   0.003247   0.001812  -0.001003
    21  H    0.000315   0.000981  -0.000007  -0.000916  -0.000254   0.000018
    22  H    0.004933  -0.002803  -0.000168   0.001802   0.002765  -0.000069
    23  H    0.003756  -0.002334  -0.000124  -0.002890   0.000952  -0.000093
    24  H   -0.049440   0.014120   0.001173   0.031935   0.010872  -0.001168
    25  H   -0.048127   0.016894   0.000644   0.019457  -0.013793  -0.000910
    26  H    0.013722  -0.016835   0.001682   0.399481  -0.120294   0.034564
    27  H    0.014323  -0.020291   0.001613   0.389892  -0.069908   0.032529
    28  H   -0.003146   0.009102  -0.010512   0.039233   0.331823  -0.050322
    29  H   -0.003399   0.006488  -0.010735   0.033522   0.345815  -0.052493
    30  H    0.000600  -0.002845  -0.000047  -0.005061  -0.017674   0.400910
    31  H    0.000071   0.004821  -0.000136  -0.036607  -0.002346   0.372191
    32  H    0.000047   0.004398  -0.000148  -0.033449  -0.004397   0.372382
              13         14         15         16         17         18
     1  N   -0.012694   0.003352  -0.023856  -0.009933  -0.010109  -0.008236
     2  C    0.366782   0.369928   0.395985   0.019410  -0.017222  -0.021795
     3  C    0.009097  -0.012899  -0.012393   0.376702   0.377929   0.394948
     4  C   -0.005637   0.019741  -0.024216  -0.017157   0.019751  -0.022308
     5  C   -0.045329   0.011579   0.010803  -0.023851  -0.018194   0.045830
     6  C    0.048160  -0.029508   0.016682   0.012700   0.006224  -0.026607
     7  O   -0.004202   0.003110   0.000314  -0.000218  -0.000218   0.001137
     8  C   -0.004858  -0.001308   0.001021   0.000421   0.000443   0.000452
     9  O    0.000309  -0.000141  -0.000007   0.000018   0.000019  -0.000028
    10  C    0.003336  -0.000782  -0.001250   0.001470   0.000969  -0.001916
    11  C    0.001924  -0.000048  -0.000357   0.000197   0.000093  -0.000251
    12  C   -0.001048   0.000115   0.000023  -0.000009  -0.000008   0.000031
    13  H    0.511389  -0.026582  -0.041354  -0.001745  -0.001176  -0.000076
    14  H   -0.026582   0.462558  -0.024000   0.000039  -0.001659   0.002914
    15  H   -0.041354  -0.024000   0.479456   0.000294   0.004417  -0.002836
    16  H   -0.001745   0.000039   0.000294   0.485979  -0.033492  -0.028770
    17  H   -0.001176  -0.001659   0.004417  -0.033492   0.486092  -0.028700
    18  H   -0.000076   0.002914  -0.002836  -0.028770  -0.028700   0.483253
    19  H    0.002156  -0.005811   0.004395  -0.001618  -0.000026   0.003058
    20  H   -0.008656   0.002275   0.002818  -0.001210  -0.001767   0.000040
    21  H    0.003008   0.004371  -0.012482   0.004431   0.000312  -0.003012
    22  H    0.003769   0.002084  -0.005226   0.002497  -0.002892  -0.000573
    23  H    0.000805  -0.004631   0.000722  -0.002865   0.002520  -0.000482
    24  H   -0.005783   0.009649  -0.002893   0.003568  -0.003065  -0.000035
    25  H    0.001317  -0.023367   0.007085  -0.003052   0.003590   0.000130
    26  H    0.002731  -0.001254   0.000410  -0.000298   0.000217   0.000036
    27  H   -0.005007   0.002473  -0.000380   0.000213  -0.000295   0.000023
    28  H    0.000070  -0.000026   0.000003   0.000002   0.000003  -0.000003
    29  H    0.000038   0.000003  -0.000010   0.000003   0.000003  -0.000004
    30  H    0.000000   0.000000  -0.000003   0.000000   0.000000   0.000000
    31  H    0.000062   0.000006  -0.000007   0.000003  -0.000002   0.000001
    32  H   -0.000197  -0.000002   0.000004  -0.000001   0.000003   0.000001
              19         20         21         22         23         24
     1  N    0.002283  -0.012487  -0.023244   0.009650   0.008641  -0.018182
     2  C    0.019887  -0.005967  -0.024225  -0.025926   0.018687  -0.004365
     3  C   -0.012680   0.009659  -0.012106  -0.002806  -0.002480   0.001170
     4  C    0.371726   0.366495   0.394982   0.017613  -0.024485  -0.034851
     5  C    0.027291  -0.046529   0.007950   0.274465   0.313364  -0.020817
     6  C   -0.043064   0.048179   0.018894   0.040915   0.007784   0.243656
     7  O    0.002958  -0.003925   0.000315   0.004933   0.003756  -0.049440
     8  C   -0.001334  -0.004395   0.000981  -0.002803  -0.002334   0.014120
     9  O   -0.000127   0.000287  -0.000007  -0.000168  -0.000124   0.001173
    10  C   -0.002313   0.003247  -0.000916   0.001802  -0.002890   0.031935
    11  C   -0.000641   0.001812  -0.000254   0.002765   0.000952   0.010872
    12  C    0.000119  -0.001003   0.000018  -0.000069  -0.000093  -0.001168
    13  H    0.002156  -0.008656   0.003008   0.003769   0.000805  -0.005783
    14  H   -0.005811   0.002275   0.004371   0.002084  -0.004631   0.009649
    15  H    0.004395   0.002818  -0.012482  -0.005226   0.000722  -0.002893
    16  H   -0.001618  -0.001210   0.004431   0.002497  -0.002865   0.003568
    17  H   -0.000026  -0.001767   0.000312  -0.002892   0.002520  -0.003065
    18  H    0.003058   0.000040  -0.003012  -0.000573  -0.000482  -0.000035
    19  H    0.461221  -0.026666  -0.023516  -0.004427   0.001657  -0.023002
    20  H   -0.026666   0.512100  -0.041370   0.000964   0.003632   0.001740
    21  H   -0.023516  -0.041370   0.479040   0.000599  -0.005131   0.007010
    22  H   -0.004427   0.000964   0.000599   0.471127  -0.031403   0.024559
    23  H    0.001657   0.003632  -0.005131  -0.031403   0.468911  -0.042308
    24  H   -0.023002   0.001740   0.007010   0.024559  -0.042308   0.877917
    25  H    0.009234  -0.005514  -0.002743  -0.043594   0.023935  -0.207452
    26  H    0.002478  -0.005377  -0.000356  -0.000667   0.002592  -0.029341
    27  H   -0.001153   0.002856   0.000339   0.002701  -0.000620   0.010220
    28  H    0.000003   0.000025  -0.000008  -0.000059  -0.000063   0.002039
    29  H   -0.000025   0.000085   0.000002  -0.000070  -0.000051   0.001248
    30  H   -0.000003   0.000002  -0.000002   0.000004  -0.000004   0.000605
    31  H   -0.000002  -0.000197   0.000007  -0.000023  -0.000032   0.001504
    32  H    0.000004   0.000068  -0.000007  -0.000032  -0.000020   0.000157
              25         26         27         28         29         30
     1  N   -0.020981   0.000703   0.000703  -0.000045  -0.000069  -0.000031
     2  C   -0.031290   0.000708   0.002609  -0.000082  -0.000160  -0.000050
     3  C    0.002865   0.001105   0.000903  -0.000064  -0.000089  -0.000006
     4  C   -0.000711   0.003194  -0.000059  -0.000126  -0.000096  -0.000046
     5  C    0.056669   0.028543   0.007503   0.001390  -0.000575  -0.001699
     6  C    0.195113   0.035678   0.022516   0.007041   0.005712  -0.007399
     7  O   -0.048127   0.013722   0.014323  -0.003146  -0.003399   0.000600
     8  C    0.016894  -0.016835  -0.020291   0.009102   0.006488  -0.002845
     9  O    0.000644   0.001682   0.001613  -0.010512  -0.010735  -0.000047
    10  C    0.019457   0.399481   0.389892   0.039233   0.033522  -0.005061
    11  C   -0.013793  -0.120294  -0.069908   0.331823   0.345815  -0.017674
    12  C   -0.000910   0.034564   0.032529  -0.050322  -0.052493   0.400910
    13  H    0.001317   0.002731  -0.005007   0.000070   0.000038   0.000000
    14  H   -0.023367  -0.001254   0.002473  -0.000026   0.000003   0.000000
    15  H    0.007085   0.000410  -0.000380   0.000003  -0.000010  -0.000003
    16  H   -0.003052  -0.000298   0.000213   0.000002   0.000003   0.000000
    17  H    0.003590   0.000217  -0.000295   0.000003   0.000003   0.000000
    18  H    0.000130   0.000036   0.000023  -0.000003  -0.000004   0.000000
    19  H    0.009234   0.002478  -0.001153   0.000003  -0.000025  -0.000003
    20  H   -0.005514  -0.005377   0.002856   0.000025   0.000085   0.000002
    21  H   -0.002743  -0.000356   0.000339  -0.000008   0.000002  -0.000002
    22  H   -0.043594  -0.000667   0.002701  -0.000059  -0.000070   0.000004
    23  H    0.023935   0.002592  -0.000620  -0.000063  -0.000051  -0.000004
    24  H   -0.207452  -0.029341   0.010220   0.002039   0.001248   0.000605
    25  H    0.876742   0.009702  -0.026501   0.001534   0.002292   0.000413
    26  H    0.009702   0.645856  -0.099308   0.009503  -0.026843  -0.003630
    27  H   -0.026501  -0.099308   0.638032  -0.026599   0.009234  -0.003014
    28  H    0.001534   0.009503  -0.026599   0.542769  -0.033428  -0.003472
    29  H    0.002292  -0.026843   0.009234  -0.033428   0.542590  -0.003149
    30  H    0.000413  -0.003630  -0.003014  -0.003472  -0.003149   0.505373
    31  H    0.000255   0.012303  -0.006980   0.013082  -0.015412  -0.018325
    32  H    0.001434  -0.007059   0.012728  -0.015526   0.012997  -0.018375
              31         32
     1  N    0.000043   0.000029
     2  C    0.000016   0.000018
     3  C    0.000011   0.000002
     4  C    0.000040   0.000009
     5  C    0.001740   0.001368
     6  C   -0.000363  -0.000044
     7  O    0.000071   0.000047
     8  C    0.004821   0.004398
     9  O   -0.000136  -0.000148
    10  C   -0.036607  -0.033449
    11  C   -0.002346  -0.004397
    12  C    0.372191   0.372382
    13  H    0.000062  -0.000197
    14  H    0.000006  -0.000002
    15  H   -0.000007   0.000004
    16  H    0.000003  -0.000001
    17  H   -0.000002   0.000003
    18  H    0.000001   0.000001
    19  H   -0.000002   0.000004
    20  H   -0.000197   0.000068
    21  H    0.000007  -0.000007
    22  H   -0.000023  -0.000032
    23  H   -0.000032  -0.000020
    24  H    0.001504   0.000157
    25  H    0.000255   0.001434
    26  H    0.012303  -0.007059
    27  H   -0.006980   0.012728
    28  H    0.013082  -0.015526
    29  H   -0.015412   0.012997
    30  H   -0.018325  -0.018375
    31  H    0.605562  -0.064893
    32  H   -0.064893   0.604603
 Mulliken charges:
               1
     1  N   -0.283906
     2  C   -0.321392
     3  C   -0.329720
     4  C   -0.319880
     5  C   -0.637003
     6  C   -0.097811
     7  O   -0.075531
     8  C    0.119795
     9  O   -0.219703
    10  C    0.086116
    11  C   -0.313254
    12  C   -0.554144
    13  H    0.209391
    14  H    0.237820
    15  H    0.226836
    16  H    0.216271
    17  H    0.216239
    18  H    0.213778
    19  H    0.237938
    20  H    0.208778
    21  H    0.227121
    22  H    0.260292
    23  H    0.262057
    24  H    0.199560
    25  H    0.198728
    26  H    0.106054
    27  H    0.108703
    28  H    0.185858
    29  H    0.186575
    30  H    0.176929
    31  H    0.133606
    32  H    0.133897
 Sum of Mulliken charges =   1.00000
 Mulliken charges with hydrogens summed into heavy atoms:
               1
     1  N   -0.283906
     2  C    0.352654
     3  C    0.316568
     4  C    0.353956
     5  C   -0.114654
     6  C    0.300477
     7  O   -0.075531
     8  C    0.119795
     9  O   -0.219703
    10  C    0.300873
    11  C    0.059179
    12  C   -0.109712
 Electronic spatial extent (au):  <R**2>=           3754.8253
 Charge=              1.0000 electrons
 Dipole moment (field-independent basis, Debye):
    X=             13.7249    Y=              5.0631    Z=             -0.0014  Tot=             14.6290
 Quadrupole moment (field-independent basis, Debye-Ang):
   XX=            -22.9016   YY=            -77.0179   ZZ=            -66.0561
   XY=             -5.1938   XZ=              0.0131   YZ=              0.0013
 Traceless Quadrupole moment (field-independent basis, Debye-Ang):
   XX=             32.4236   YY=            -21.6927   ZZ=            -10.7309
   XY=             -5.1938   XZ=              0.0131   YZ=              0.0013
 Octapole moment (field-independent basis, Debye-Ang**2):
  XXX=            171.4413  YYY=             15.4533  ZZZ=              0.1101  XYY=             45.5687
  XXY=             32.9832  XXZ=             -0.0562  XZZ=             21.8256  YZZ=              1.0186
  YYZ=             -0.0675  XYZ=              0.0123
 Hexadecapole moment (field-independent basis, Debye-Ang**3):
 XXXX=          -3092.1168 YYYY=           -745.9019 ZZZZ=           -245.4475 XXXY=            -36.8834
 XXXZ=             -0.4881 YYYX=              4.6909 YYYZ=             -0.3307 ZZZX=              0.4321
 ZZZY=              0.1714 XXYY=           -761.5108 XXZZ=           -644.9771 YYZZ=           -147.3069
 XXYZ=              0.3522 YYXZ=             -0.1077 ZZXY=             19.9137
 N-N= 7.507166271241D+02 E-N=-2.790260940104D+03  KE= 5.568939184278D+02

 **********************************************************************

            Electrostatic Properties Using The SCF Density

 **********************************************************************

       Atomic Center    1 is at   2.896300  0.258153 -0.000031
       Atomic Center    2 is at   2.817626  1.154647 -1.223715
       Atomic Center    3 is at   4.234540 -0.466646 -0.019375
       Atomic Center    4 is at   2.832450  1.115255  1.252474
       Atomic Center    5 is at   1.789152 -0.794852 -0.010107
       Atomic Center    6 is at   0.364774 -0.219982  0.001630
       Atomic Center    7 is at  -0.532496 -1.303123 -0.000695
       Atomic Center    8 is at  -1.892774 -1.150772 -0.000862
       Atomic Center    9 is at  -2.635601 -2.110963  0.000258
       Atomic Center   10 is at  -2.399011  0.287814 -0.003414
       Atomic Center   11 is at  -3.933431  0.405626  0.003605
       Atomic Center   12 is at  -4.392293  1.870612 -0.000686
       Atomic Center   13 is at   1.896403  1.777395 -1.223296
       Atomic Center   14 is at   2.832491  0.554794 -2.161774
       Atomic Center   15 is at   3.678857  1.859890 -1.257488
       Atomic Center   16 is at   4.347740 -1.127583  0.869834
       Atomic Center   17 is at   4.337020 -1.099373 -0.930148
       Atomic Center   18 is at   5.085061  0.252222 -0.013288
       Atomic Center   19 is at   2.858718  0.485837  2.170718
       Atomic Center   20 is at   1.911391  1.737418  1.283383
       Atomic Center   21 is at   3.694158  1.819254  1.298303
       Atomic Center   22 is at   1.899023 -1.440027 -0.914709
       Atomic Center   23 is at   1.905518 -1.463320  0.876559
       Atomic Center   24 is at   0.195053  0.380041  0.922462
       Atomic Center   25 is at   0.186745  0.392555 -0.909352
       Atomic Center   26 is at  -2.014550  0.811782  0.902518
       Atomic Center   27 is at  -2.023433  0.804059 -0.917513
       Atomic Center   28 is at  -4.355821 -0.108392 -0.893376
       Atomic Center   29 is at  -4.346754 -0.100693  0.909140
       Atomic Center   30 is at  -5.504464  1.941164  0.004595
       Atomic Center   31 is at  -4.014709  2.413311  0.895909
       Atomic Center   32 is at  -4.023967  2.405082 -0.906062
 -----------------------------------------------------------------

              Electrostatic Properties (Atomic Units)

 -----------------------------------------------------------------
    Center     Electric         -------- Electric Field --------
               Potential          X             Y             Z
 -----------------------------------------------------------------
    1 Atom    -18.073932      0.000653     -0.000102     -0.000001
    2 Atom    -14.538903     -0.000238      0.007439     -0.010448
    3 Atom    -14.541355      0.011350     -0.006244     -0.000168
    4 Atom    -14.538963     -0.000107      0.007092      0.010696
    5 Atom    -14.537446     -0.009843     -0.010780     -0.000087
    6 Atom    -14.540037      0.004119      0.013400      0.000047
    7 Atom    -22.196032      0.013556     -0.044632     -0.000047
    8 Atom    -14.530410     -0.015663      0.012869     -0.000011
    9 Atom    -22.280067     -0.029963     -0.038569      0.000050
   10 Atom    -14.644298     -0.006700      0.001284      0.000030
   11 Atom    -14.676653     -0.004200     -0.000470      0.000011
   12 Atom    -14.692419     -0.000498     -0.000518      0.000004
   13 Atom     -0.907251     -0.003774     -0.001323      0.004348
   14 Atom     -0.907325      0.000118     -0.005698      0.000660
   15 Atom     -0.907495      0.004497     -0.001306      0.004686
   16 Atom     -0.910274     -0.005025     -0.000106      0.003499
   17 Atom     -0.910279     -0.005068      0.000006     -0.003438
   18 Atom     -0.909752     -0.002111      0.006255      0.000125
   19 Atom     -0.907409      0.000105     -0.005677     -0.000859
   20 Atom     -0.907306     -0.003833     -0.001186     -0.004354
   21 Atom     -0.907536      0.004427     -0.001151     -0.004792
   22 Atom     -0.915827      0.004734      0.001242     -0.002813
   23 Atom     -0.915851      0.004665      0.001164      0.002842
   24 Atom     -0.942865     -0.000126      0.007122      0.002471
   25 Atom     -0.942915     -0.000232      0.007117     -0.002314
   26 Atom     -0.984652      0.005620      0.004999      0.002121
   27 Atom     -0.984560      0.005584      0.004990     -0.002250
   28 Atom     -1.039215     -0.000491     -0.004113     -0.000200
   29 Atom     -1.039153     -0.000526     -0.004092      0.000266
   30 Atom     -1.040181     -0.002777      0.000211      0.000022
   31 Atom     -1.039293      0.000735      0.003637      0.003923
   32 Atom     -1.039294      0.000704      0.003580     -0.003948
 -----------------------------------------------------------------
 -----------------------------------------------------
    Center         ---- Electric Field Gradient ----
                     XX            YY            ZZ
 -----------------------------------------------------
    1 Atom     -812.746704   -812.768887   -812.771478
    2 Atom     -500.213759   -500.450232   -500.654337
    3 Atom     -500.788093   -500.403139   -500.248773
    4 Atom     -500.213402   -500.429925   -500.675133
    5 Atom     -500.707649   -500.718871   -500.312081
    6 Atom     -500.470752   -500.471030   -500.096289
    7 Atom    -1238.144204  -1236.618328  -1235.362921
    8 Atom     -501.343153   -500.820501   -501.606712
    9 Atom    -1237.768433  -1238.038116  -1239.465051
   10 Atom     -500.314761   -500.459768   -500.393717
   11 Atom     -500.361099   -500.214723   -500.154045
   12 Atom     -500.230780   -500.318700   -500.255566
   13 Atom       -1.914080     -1.756065     -1.650343
   14 Atom       -1.622941     -1.762270     -1.903922
   15 Atom       -1.868984     -1.781806     -1.642510
   16 Atom       -1.646619     -1.760990     -1.881810
   17 Atom       -1.646279     -1.749588     -1.893764
   18 Atom       -1.857437     -1.814265     -1.624448
   19 Atom       -1.622980     -1.773273     -1.892620
   20 Atom       -1.914380     -1.755536     -1.650666
   21 Atom       -1.868871     -1.780983     -1.643340
   22 Atom       -1.656915     -1.760268     -1.893109
   23 Atom       -1.657191     -1.769166     -1.883198
   24 Atom       -1.711095     -1.809777     -1.953486
   25 Atom       -1.711978     -1.814696     -1.947642
   26 Atom       -1.712531     -1.744045     -1.913975
   27 Atom       -1.709748     -1.740982     -1.918277
   28 Atom       -1.724441     -1.742574     -1.915849
   29 Atom       -1.722272     -1.740271     -1.920850
   30 Atom       -2.047192     -1.653195     -1.645259
   31 Atom       -1.710927     -1.760135     -1.925733
   32 Atom       -1.708473     -1.757144     -1.930783
 -----------------------------------------------------
 -----------------------------------------------------
    Center         ---- Electric Field Gradient ----
                     XY            XZ            YZ
 -----------------------------------------------------
    1 Atom       -0.003732     -0.000359      0.000098
    2 Atom        0.015786     -0.019188      0.319882
    3 Atom        0.287034      0.007783     -0.004164
    4 Atom        0.011274      0.014174     -0.313124
    5 Atom       -0.319070     -0.002902     -0.004373
    6 Atom       -0.232364      0.000483     -0.001706
    7 Atom       -1.017626     -0.001595     -0.003834
    8 Atom        0.071977      0.000019     -0.000926
    9 Atom       -1.176738      0.001952     -0.001742
   10 Atom        0.039367     -0.000381     -0.000141
   11 Atom        0.029885      0.001063      0.000366
   12 Atom        0.013758     -0.000242      0.000199
   13 Atom        0.180227      0.011774      0.005178
   14 Atom        0.004405      0.003562     -0.171440
   15 Atom       -0.189486     -0.004091      0.011439
   16 Atom        0.025624     -0.018531      0.184827
   17 Atom        0.022879      0.016408     -0.180970
   18 Atom       -0.183952     -0.001471     -0.001858
   19 Atom        0.006723     -0.006784      0.175500
   20 Atom        0.180405     -0.002780     -0.010781
   21 Atom       -0.189712      0.000794     -0.013561
   22 Atom        0.017982      0.040527     -0.173313
   23 Atom        0.020312     -0.041744      0.176368
   24 Atom        0.021646      0.046982     -0.179057
   25 Atom        0.023913     -0.048945      0.180550
   26 Atom       -0.061450     -0.117811     -0.152976
   27 Atom       -0.059013      0.116222      0.152120
   28 Atom       -0.063903     -0.116112     -0.145739
   29 Atom       -0.061431      0.114708      0.144929
   30 Atom        0.023631      0.001926     -0.000086
   31 Atom       -0.064413     -0.114941     -0.157334
   32 Atom       -0.061749      0.113248      0.156396
 -----------------------------------------------------
 -----------------------------------------------------
    Center         ---- Electric Field Gradient ----
                   ----       Eigenvalues       ----
 -----------------------------------------------------
    1 Atom     -812.771485   -812.769497   -812.746088
    2 Atom     -500.888962   -500.217007   -500.212359
    3 Atom     -500.941323   -500.250021   -500.248661
    4 Atom     -500.889283   -500.216718   -500.212459
    5 Atom     -501.032416   -500.394152   -500.312032
    6 Atom     -500.703256   -500.238544   -500.096271
    7 Atom    -1238.653132  -1236.109412  -1235.362908
    8 Atom     -501.606713   -501.352884   -500.810769
    9 Atom    -1239.465054  -1239.087713  -1236.718834
   10 Atom     -500.469766   -500.393719   -500.304761
   11 Atom     -500.366970   -500.208862   -500.154035
   12 Atom     -500.320803   -500.255566   -500.228676
   13 Atom       -2.031986     -1.656565     -1.631938
   14 Atom       -2.018663     -1.647716     -1.622753
   15 Atom       -2.019871     -1.649571     -1.623858
   16 Atom       -2.018279     -1.648645     -1.622494
   17 Atom       -2.018352     -1.648714     -1.622564
   18 Atom       -2.021079     -1.650643     -1.624428
   19 Atom       -2.018539     -1.647671     -1.622663
   20 Atom       -2.032105     -1.656574     -1.631903
   21 Atom       -2.019825     -1.649551     -1.623818
   22 Atom       -2.017563     -1.656026     -1.636704
   23 Atom       -2.017340     -1.655755     -1.636459
   24 Atom       -2.081604     -1.707695     -1.685059
   25 Atom       -2.081413     -1.707762     -1.685141
   26 Atom       -2.055377     -1.664860     -1.650313
   27 Atom       -2.054816     -1.664330     -1.649860
   28 Atom       -2.052322     -1.671140     -1.659403
   29 Atom       -2.052566     -1.671314     -1.659514
   30 Atom       -2.048613     -1.651783     -1.645250
   31 Atom       -2.069144     -1.668040     -1.659611
   32 Atom       -2.068952     -1.667934     -1.659514
 -----------------------------------------------------
 -----------------------------------------------------
    Center         ---- Electric Field Gradient ----
                       ( tensor representation )
                   3XX-RR        3YY-RR        3ZZ-RR
 -----------------------------------------------------
    1 Atom        0.015652     -0.006530     -0.009122
    2 Atom        0.225684     -0.010790     -0.214894
    3 Atom       -0.308091      0.076863      0.231229
    4 Atom        0.226084      0.009562     -0.235646
    5 Atom       -0.128115     -0.139337      0.267453
    6 Atom       -0.124728     -0.125006      0.249734
    7 Atom       -1.435720      0.090156      1.345563
    8 Atom       -0.086364      0.436287     -0.349923
    9 Atom        0.655434      0.385751     -1.041184
   10 Atom        0.074654     -0.070352     -0.004302
   11 Atom       -0.117810      0.028566      0.089244
   12 Atom        0.037569     -0.050351      0.012783
   13 Atom       -0.140584      0.017431      0.123153
   14 Atom        0.140104      0.000774     -0.140877
   15 Atom       -0.104551     -0.017373      0.121924
   16 Atom        0.116521      0.002149     -0.118670
   17 Atom        0.116931      0.013623     -0.130554
   18 Atom       -0.092054     -0.048881      0.140935
   19 Atom        0.139977     -0.010315     -0.129662
   20 Atom       -0.140852      0.017991      0.122861
   21 Atom       -0.104473     -0.016585      0.121058
   22 Atom        0.113182      0.009829     -0.123011
   23 Atom        0.112661      0.000685     -0.113346
   24 Atom        0.113691      0.015009     -0.128700
   25 Atom        0.112794      0.010076     -0.122870
   26 Atom        0.077653      0.046139     -0.123791
   27 Atom        0.079921      0.048687     -0.128608
   28 Atom        0.069847      0.051714     -0.121561
   29 Atom        0.072192      0.054193     -0.126386
   30 Atom       -0.265310      0.128687      0.136623
   31 Atom        0.088005      0.038796     -0.126801
   32 Atom        0.090327      0.041656     -0.131983
 -----------------------------------------------------
 -----------------------------------------------------
    Center         ---- Electric Field Gradient ----
                       ( tensor representation )
                   ----       Eigenvalues       ----
 -----------------------------------------------------
    1 Atom       -0.009128     -0.007141      0.016269
    2 Atom       -0.449519      0.222436      0.227084
    3 Atom       -0.461322      0.229981      0.231341
    4 Atom       -0.449796      0.222768      0.227028
    5 Atom       -0.452883      0.185381      0.267501
    6 Atom       -0.357232      0.107480      0.249752
    7 Atom       -1.944648      0.599072      1.345576
    8 Atom       -0.349924     -0.096095      0.446020
    9 Atom       -1.041187     -0.663846      1.705033
   10 Atom       -0.080350     -0.004304      0.084654
   11 Atom       -0.123681      0.034427      0.089254
   12 Atom       -0.052455      0.012782      0.039673
   13 Atom       -0.258489      0.116931      0.141559
   14 Atom       -0.255619      0.115328      0.140291
   15 Atom       -0.255438      0.114863      0.140575
   16 Atom       -0.255140      0.114494      0.140645
   17 Atom       -0.255142      0.114496      0.140646
   18 Atom       -0.255696      0.114741      0.140955
   19 Atom       -0.255581      0.115287      0.140294
   20 Atom       -0.258578      0.116954      0.141624
   21 Atom       -0.255427      0.114847      0.140580
   22 Atom       -0.247465      0.114071      0.133394
   23 Atom       -0.247489      0.114096      0.133392
   24 Atom       -0.256818      0.117091      0.139727
   25 Atom       -0.256641      0.117010      0.139631
   26 Atom       -0.265193      0.125323      0.139870
   27 Atom       -0.265147      0.125338      0.139809
   28 Atom       -0.258034      0.123148      0.134885
   29 Atom       -0.258101      0.123151      0.134951
   30 Atom       -0.266731      0.130099      0.136632
   31 Atom       -0.270212      0.130892      0.139320
   32 Atom       -0.270152      0.130866      0.139286
 -----------------------------------------------------
 Calling FoFJK, ICntrl=      2127 FMM=F ISym2X=0 I1Cent= 0 IOpClX= 0 NMat=1 NMatS=1 NMatT=0.
 ***** Axes restored to original set *****
 -------------------------------------------------------------------
 Center     Atomic                   Forces (Hartrees/Bohr)
 Number     Number              X              Y              Z
 -------------------------------------------------------------------
      1        7           0.003556808   -0.001059905    0.005880644
      2        6           0.010077699    0.020278669    0.001033681
      3        6           0.014544843   -0.015979716    0.006771581
      4        6          -0.017708647    0.000553908    0.014201281
      5        6          -0.000563738   -0.013721563   -0.021467893
      6        6          -0.008601955    0.018791100    0.009322133
      7        8           0.013101009   -0.023920789   -0.007174137
      8        6          -0.022855098    0.012772739   -0.029648464
      9        8           0.015264344    0.002239021    0.035221910
     10        6          -0.004117035    0.006095960    0.000136247
     11        6          -0.004618197   -0.002060559   -0.012587798
     12        6          -0.003503509    0.007794232    0.003756877
     13        1           0.005168719   -0.015218336    0.002186588
     14        1          -0.012793673   -0.005689142    0.007635479
     15        1          -0.006743490   -0.009181345   -0.011726566
     16        1           0.001127951    0.015986454   -0.002545549
     17        1          -0.014710329    0.004788903    0.004939759
     18        1          -0.008426255    0.002656847   -0.013787599
     19        1           0.010900483    0.011094862   -0.003574566
     20        1           0.012890899   -0.009737274   -0.001484554
     21        1           0.002170016   -0.002838966   -0.015946213
     22        1          -0.009158335    0.001768333    0.013547784
     23        1           0.007429451    0.013507167    0.005608738
     24        1           0.011422063    0.003779127   -0.002995772
     25        1          -0.006747766   -0.008828070    0.005566704
     26        1           0.009953647    0.003529459   -0.005882781
     27        1          -0.007922748   -0.008664901    0.002780947
     28        1          -0.007401458   -0.006503230    0.011395830
     29        1           0.012962574    0.007462785    0.001489042
     30        1           0.008662919   -0.006104666    0.009283495
     31        1           0.005678291    0.003246858   -0.009541992
     32        1          -0.009039480   -0.006837963   -0.002394837
 -------------------------------------------------------------------
 Cartesian Forces:  Max     0.035221910 RMS     0.010869285

 GradGradGradGradGradGradGradGradGradGradGradGradGradGradGradGradGradGrad
 Berny optimization.
 FormGI is forming the generalized inverse of G from B-inverse, IUseBI=4.
 GSVD:  received Info=                   1 from GESDD.
 Internal  Forces:  Max     0.035784843 RMS     0.007108403
 Search for a local minimum.
 Step number   1 out of a maximum of  173
 All quantities printed in internal units (Hartrees-Bohrs-Radians)
 Mixed Optimization -- RFO/linear search
 Second derivative matrix not updated -- first step.
 ITU=  0
     Eigenvalues ---    0.00230   0.00230   0.00230   0.00230   0.00251
     Eigenvalues ---    0.00289   0.00301   0.00434   0.00841   0.01606
     Eigenvalues ---    0.02105   0.03295   0.03580   0.03993   0.04306
     Eigenvalues ---    0.04724   0.04814   0.04870   0.05051   0.05309
     Eigenvalues ---    0.05310   0.05384   0.05385   0.05430   0.05430
     Eigenvalues ---    0.05433   0.05434   0.05439   0.05473   0.05698
     Eigenvalues ---    0.08114   0.08574   0.09323   0.11285   0.12049
     Eigenvalues ---    0.12387   0.12858   0.13604   0.14221   0.14527
     Eigenvalues ---    0.16000   0.16000   0.16000   0.16000   0.16000
     Eigenvalues ---    0.16000   0.16000   0.16000   0.16000   0.16000
     Eigenvalues ---    0.16000   0.16000   0.21928   0.21954   0.22084
     Eigenvalues ---    0.22085   0.25000   0.25000   0.25000   0.28612
     Eigenvalues ---    0.28871   0.28951   0.29612   0.29884   0.30171
     Eigenvalues ---    0.30460   0.30465   0.31892   0.31893   0.31919
     Eigenvalues ---    0.31922   0.32080   0.32084   0.32137   0.32179
[...]
    28  H    0.013594  -0.016456
    29  H   -0.016364   0.013565
    30  H   -0.019029  -0.019053
    31  H    0.598837  -0.065466
    32  H   -0.065466   0.598277
 Mulliken charges:
               1
     1  N   -0.382071
     2  C   -0.268027
     3  C   -0.265080
     4  C   -0.266095
     5  C   -0.513923
     6  C   -0.193093
     7  O   -0.099464
     8  C    0.122378
     9  O   -0.208077
    10  C    0.113649
    11  C   -0.350199
    12  C   -0.550578
    13  H    0.199106
    14  H    0.226676
    15  H    0.220325
    16  H    0.204818
    17  H    0.205021
    18  H    0.206858
    19  H    0.226571
    20  H    0.198342
    21  H    0.220210
    22  H    0.253137
    23  H    0.254349
    24  H    0.196963
    25  H    0.196294
    26  H    0.115318
    27  H    0.116543
    28  H    0.185814
    29  H    0.186184
    30  H    0.172993
    31  H    0.137445
    32  H    0.137615
 Sum of Mulliken charges =   1.00000
 Mulliken charges with hydrogens summed into heavy atoms:
               1
     1  N   -0.382071
     2  C    0.378079
     3  C    0.351616
     4  C    0.379028
     5  C   -0.006437
     6  C    0.200164
     7  O   -0.099464
     8  C    0.122378
     9  O   -0.208077
    10  C    0.345511
    11  C    0.021799
    12  C   -0.102525
 Electronic spatial extent (au):  <R**2>=           3811.8847
 Charge=              1.0000 electrons
 Dipole moment (field-independent basis, Debye):
    X=             13.0282    Y=              5.0363    Z=             -0.0005  Tot=             13.9677
 Quadrupole moment (field-independent basis, Debye-Ang):
   XX=            -19.6356   YY=            -76.5464   ZZ=            -66.4108
   XY=             -4.6688   XZ=              0.0065   YZ=             -0.0014
 Traceless Quadrupole moment (field-independent basis, Debye-Ang):
   XX=             34.5620   YY=            -22.3488   ZZ=            -12.2132
   XY=             -4.6688   XZ=              0.0065   YZ=             -0.0014
 Octapole moment (field-independent basis, Debye-Ang**2):
  XXX=            160.0307  YYY=             14.6046  ZZZ=              0.0486  XYY=             41.9573
  XXY=             29.2153  XXZ=             -0.0193  XZZ=             21.0573  YZZ=              0.2912
  YYZ=             -0.0338  XYZ=              0.0031
 Hexadecapole moment (field-independent basis, Debye-Ang**3):
 XXXX=          -3177.3842 YYYY=           -686.9663 ZZZZ=           -240.9863 XXXY=            -18.4114
 XXXZ=             -0.2488 YYYX=              0.5043 YYYZ=             -0.2252 ZZZX=              0.2310
 ZZZY=              0.1000 XXYY=           -767.0580 XXZZ=           -666.2364 YYZZ=           -138.5100
 XXYZ=              0.2198 YYXZ=             -0.0821 ZZXY=             16.9787
 N-N= 7.532874127480D+02 E-N=-2.796038671955D+03  KE= 5.576558115069D+02

 **********************************************************************

            Electrostatic Properties Using The SCF Density

 **********************************************************************

       Atomic Center    1 is at   2.943759  0.250374  0.000166
       Atomic Center    2 is at   2.946788  1.134961 -1.220925
       Atomic Center    3 is at   4.191913 -0.600517 -0.015333
       Atomic Center    4 is at   2.956344  1.104101  1.242948
       Atomic Center    5 is at   1.746294 -0.692018 -0.007001
       Atomic Center    6 is at   0.360432 -0.040633  0.000686
       Atomic Center    7 is at  -0.491813 -1.175462 -0.000861
       Atomic Center    8 is at  -1.889357 -1.077747 -0.000525
       Atomic Center    9 is at  -2.492960 -2.103482  0.000246
       Atomic Center   10 is at  -2.486419  0.311990 -0.001783
       Atomic Center   11 is at  -4.018582  0.303564  0.002526
       Atomic Center   12 is at  -4.602850  1.717649 -0.000653
       Atomic Center   13 is at   2.091168  1.804984 -1.186921
       Atomic Center   14 is at   2.898876  0.508536 -2.110194
       Atomic Center   15 is at   3.866327  1.718034 -1.226178
       Atomic Center   16 is at   4.195300 -1.238051  0.866963
       Atomic Center   17 is at   4.191236 -1.211605 -0.916141
       Atomic Center   18 is at   5.062185  0.053518 -0.007576
       Atomic Center   19 is at   2.918910  0.455549  2.116694
       Atomic Center   20 is at   2.098552  1.772064  1.233940
       Atomic Center   21 is at   3.874234  1.689677  1.253719
       Atomic Center   22 is at   1.842210 -1.315736 -0.896009
       Atomic Center   23 is at   1.844121 -1.331635  0.870424
       Atomic Center   24 is at   0.204224  0.571194  0.894477
       Atomic Center   25 is at   0.198243  0.578740 -0.886750
       Atomic Center   26 is at  -2.108301  0.858205  0.872006
       Atomic Center   27 is at  -2.113416  0.853547 -0.880704
       Atomic Center   28 is at  -4.372559 -0.254861 -0.867642
       Atomic Center   29 is at  -4.367737 -0.248923  0.878448
       Atomic Center   30 is at  -5.694065  1.682824  0.002692
       Atomic Center   31 is at  -4.289895  2.285505  0.881208
       Atomic Center   32 is at  -4.295121  2.279253 -0.888335
 -----------------------------------------------------------------

              Electrostatic Properties (Atomic Units)

 -----------------------------------------------------------------
    Center     Electric         -------- Electric Field --------
               Potential          X             Y             Z
 -----------------------------------------------------------------
    1 Atom    -18.086581     -0.000520     -0.000414      0.000001
    2 Atom    -14.549638      0.000400      0.005141     -0.007390
    3 Atom    -14.552073      0.007599     -0.005140     -0.000090
    4 Atom    -14.549709      0.000457      0.004953      0.007521
    5 Atom    -14.549216     -0.008769     -0.005694     -0.000031
    6 Atom    -14.547778      0.004175      0.008446      0.000005
    7 Atom    -22.206186      0.012336     -0.041525     -0.000041
    8 Atom    -14.535082     -0.007893      0.013889     -0.000003
    9 Atom    -22.277359     -0.027850     -0.046211      0.000038
   10 Atom    -14.646017     -0.006969      0.000427      0.000019
   11 Atom    -14.680239     -0.002750      0.001433      0.000000
   12 Atom    -14.698782      0.000280     -0.001917      0.000005
   13 Atom     -0.912099     -0.014789      0.011928      0.000144
   14 Atom     -0.912465     -0.000797     -0.010570     -0.015766
   15 Atom     -0.912541      0.015868      0.010335     -0.000478
   16 Atom     -0.915090      0.000504     -0.011269      0.015233
   17 Atom     -0.915076      0.000430     -0.010817     -0.015560
   18 Atom     -0.914470      0.015490      0.010951      0.000118
   19 Atom     -0.912539     -0.000620     -0.010971      0.015507
   20 Atom     -0.912170     -0.014825      0.011903      0.000327
   21 Atom     -0.912584      0.015844      0.010369      0.000587
   22 Atom     -0.924310      0.001346     -0.011218     -0.015302
   23 Atom     -0.924346      0.001386     -0.011494      0.015096
   24 Atom     -0.946479     -0.003407      0.009813      0.014991
   25 Atom     -0.946527     -0.003502      0.009941     -0.014891
   26 Atom     -0.985460      0.005574      0.009238      0.014224
   27 Atom     -0.985419      0.005488      0.009163     -0.014308
   28 Atom     -1.040205     -0.006121     -0.009421     -0.014445
   29 Atom     -1.040171     -0.006039     -0.009323      0.014537
   30 Atom     -1.043427     -0.018245     -0.000458      0.000055
   31 Atom     -1.041400      0.004748      0.009403      0.014432
   32 Atom     -1.041406      0.004662      0.009303     -0.014525
 -----------------------------------------------------------------
 -----------------------------------------------------
    Center         ---- Electric Field Gradient ----
                     XX            YY            ZZ
 -----------------------------------------------------
    1 Atom     -812.736878   -812.754907   -812.769716
    2 Atom     -500.294723   -500.524335   -500.737815
    3 Atom     -500.811704   -500.548244   -500.329589
    4 Atom     -500.295164   -500.508662   -500.753844
    5 Atom     -500.875812   -500.777611   -500.404755
    6 Atom     -500.500071   -500.492817   -500.106761
    7 Atom    -1238.573242  -1237.412706  -1235.817023
    8 Atom     -501.530042   -500.940487   -501.762633
    9 Atom    -1237.248057  -1238.175278  -1239.370451
   10 Atom     -500.324300   -500.470513   -500.368213
   11 Atom     -500.378613   -500.206499   -500.129153
   12 Atom     -500.217273   -500.321773   -500.236259
   13 Atom       -1.962827     -1.847160     -1.691914
   14 Atom       -1.664595     -1.835885     -1.971666
   15 Atom       -1.994604     -1.798408     -1.684084
   16 Atom       -1.684464     -1.821555     -1.968281
   17 Atom       -1.684629     -1.809162     -1.980754
   18 Atom       -1.962068     -1.853659     -1.665909
   19 Atom       -1.664180     -1.846183     -1.961668
   20 Atom       -1.964633     -1.845955     -1.691708
   21 Atom       -1.993320     -1.799159     -1.684721
   22 Atom       -1.704049     -1.823518     -1.981481
   23 Atom       -1.703999     -1.830709     -1.973723
   24 Atom       -1.731786     -1.849963     -2.001183
   25 Atom       -1.732463     -1.853463     -1.997142
   26 Atom       -1.737587     -1.785334     -1.953735
   27 Atom       -1.735842     -1.783195     -1.956702
   28 Atom       -1.750386     -1.807595     -1.982101
   29 Atom       -1.749170     -1.805191     -1.985877
   30 Atom       -2.135088     -1.684609     -1.676563
   31 Atom       -1.726210     -1.809315     -1.981485
   32 Atom       -1.724899     -1.806648     -1.985371
 -----------------------------------------------------
 -----------------------------------------------------
    Center         ---- Electric Field Gradient ----
                     XY            XZ            YZ
 -----------------------------------------------------
    1 Atom        0.004846     -0.000199      0.000299
    2 Atom       -0.004931      0.008591      0.320060
    3 Atom        0.320118      0.005904     -0.004054
    4 Atom       -0.007283     -0.012240     -0.314508
    5 Atom       -0.317980     -0.002444     -0.003147
    6 Atom       -0.223943      0.000509     -0.001091
    7 Atom       -1.037663     -0.000627     -0.003113
    8 Atom        0.035724      0.000004     -0.000514
    9 Atom       -0.973692      0.000551     -0.000534
   10 Atom        0.057995     -0.000189     -0.000009
   11 Atom        0.020442      0.000713      0.000371
   12 Atom        0.032287     -0.000200      0.000188
   13 Atom        0.219382      0.021015     -0.002308
   14 Atom       -0.011878     -0.016312     -0.203395
   15 Atom       -0.201552     -0.008469      0.008834
   16 Atom        0.007475      0.009150      0.212656
   17 Atom        0.006786     -0.010275     -0.207995
   18 Atom       -0.207856     -0.002410     -0.002320
   19 Atom       -0.009720      0.012475      0.206693
   20 Atom        0.219529     -0.012920     -0.003740
   21 Atom       -0.202413      0.006512     -0.009679
   22 Atom        0.017985      0.040237     -0.203335
   23 Atom        0.019211     -0.040562      0.205950
   24 Atom        0.025318      0.050018     -0.201073
   25 Atom        0.027112     -0.051687      0.202100
   26 Atom       -0.071013     -0.124731     -0.175524
   27 Atom       -0.069337      0.123756      0.175003
   28 Atom       -0.069614     -0.113828     -0.182799
   29 Atom       -0.067803      0.112984      0.181992
   30 Atom       -0.015972      0.001413      0.000075
   31 Atom       -0.064517     -0.109241     -0.187355
   32 Atom       -0.062644      0.108162      0.186489
 -----------------------------------------------------
 -----------------------------------------------------
    Center         ---- Electric Field Gradient ----
                   ----       Eigenvalues       ----
 -----------------------------------------------------
    1 Atom     -812.769724   -812.756118   -812.735658
    2 Atom     -500.968609   -500.295247   -500.293016
    3 Atom     -501.026210   -500.333814   -500.329514
    4 Atom     -500.969109   -500.295348   -500.293213
    5 Atom     -501.148481   -500.504970   -500.404729
    6 Atom     -500.720416   -500.272480   -500.106753
    7 Atom    -1239.181863  -1236.804092  -1235.817016
    8 Atom     -501.762633   -501.532199   -500.938329
    9 Atom    -1239.370451  -1238.790097  -1236.633238
   10 Atom     -500.490723   -500.368213   -500.304090
   11 Atom     -500.381009   -500.204107   -500.129149
   12 Atom     -500.330945   -500.236259   -500.208102
   13 Atom       -2.132610     -1.697428     -1.671863
   14 Atom       -2.119097     -1.689350     -1.663699
   15 Atom       -2.120677     -1.691546     -1.664872
   16 Atom       -2.119895     -1.690705     -1.663700
   17 Atom       -2.120005     -1.690771     -1.663768
   18 Atom       -2.122695     -1.693061     -1.665880
   19 Atom       -2.119083     -1.689320     -1.663629
   20 Atom       -2.132846     -1.697526     -1.671924
   21 Atom       -2.120730     -1.691578     -1.664892
   22 Atom       -2.125103     -1.702900     -1.681046
   23 Atom       -2.124868     -1.702667     -1.680896
   24 Atom       -2.147809     -1.727758     -1.707366
   25 Atom       -2.147854     -1.727790     -1.707425
   26 Atom       -2.118237     -1.686574     -1.671845
   27 Atom       -2.117859     -1.686281     -1.671599
   28 Atom       -2.142766     -1.705259     -1.692057
   29 Atom       -2.142815     -1.705325     -1.692097
   30 Atom       -2.135658     -1.684043     -1.676558
   31 Atom       -2.140400     -1.692832     -1.683778
   32 Atom       -2.140360     -1.692805     -1.683752
 -----------------------------------------------------
 -----------------------------------------------------
    Center         ---- Electric Field Gradient ----
                       ( tensor representation )
                   3XX-RR        3YY-RR        3ZZ-RR
 -----------------------------------------------------
    1 Atom        0.016955     -0.001073     -0.015882
    2 Atom        0.224235     -0.005377     -0.218858
    3 Atom       -0.248525      0.014935      0.233590
    4 Atom        0.224059      0.010562     -0.234621
    5 Atom       -0.189753     -0.091552      0.281304
    6 Atom       -0.133521     -0.126267      0.259789
    7 Atom       -1.305585     -0.145049      1.450634
    8 Atom       -0.118988      0.470567     -0.351579
    9 Atom        1.016538      0.089317     -1.105856
   10 Atom        0.063375     -0.082837      0.019463
   11 Atom       -0.140525      0.031590      0.108935
   12 Atom        0.041162     -0.063338      0.022176
   13 Atom       -0.128860     -0.013193      0.142053
   14 Atom        0.159453     -0.011836     -0.147617
   15 Atom       -0.168905      0.027290      0.141615
   16 Atom        0.140303      0.003211     -0.143514
   17 Atom        0.140219      0.015687     -0.155906
   18 Atom       -0.134856     -0.026447      0.161303
   19 Atom        0.159830     -0.022173     -0.137658
   20 Atom       -0.130534     -0.011856      0.142390
   21 Atom       -0.167587      0.026575      0.141012
   22 Atom        0.132301      0.012831     -0.145132
   23 Atom        0.132145      0.005434     -0.137579
   24 Atom        0.129191      0.011015     -0.140206
   25 Atom        0.128560      0.007559     -0.136119
   26 Atom        0.087965      0.040218     -0.128183
   27 Atom        0.089404      0.042051     -0.131456
   28 Atom        0.096308      0.039099     -0.135407
   29 Atom        0.097575      0.041555     -0.139131
   30 Atom       -0.303001      0.147478      0.155524
   31 Atom        0.112793      0.029688     -0.142482
   32 Atom        0.114073      0.032325     -0.146398
 -----------------------------------------------------
 -----------------------------------------------------
    Center         ---- Electric Field Gradient ----
                       ( tensor representation )
                   ----       Eigenvalues       ----
 -----------------------------------------------------
    1 Atom       -0.015891     -0.002285      0.018176
    2 Atom       -0.449651      0.223710      0.225941
    3 Atom       -0.463030      0.229365      0.233665
    4 Atom       -0.449885      0.223875      0.226010
    5 Atom       -0.462421      0.181090      0.281331
    6 Atom       -0.353867      0.094070      0.259797
    7 Atom       -1.914206      0.463565      1.450641
    8 Atom       -0.351579     -0.121145      0.472724
    9 Atom       -1.105856     -0.525502      1.631358
   10 Atom       -0.103048      0.019462      0.083586
   11 Atom       -0.142921      0.033981      0.108939
   12 Atom       -0.072510      0.022176      0.050334
   13 Atom       -0.298643      0.136539      0.162105
   14 Atom       -0.295049      0.134699      0.160350
   15 Atom       -0.294979      0.134153      0.160826
   16 Atom       -0.295128      0.134062      0.161067
   17 Atom       -0.295157      0.134077      0.161080
   18 Atom       -0.295483      0.134151      0.161332
   19 Atom       -0.295073      0.134691      0.160382
   20 Atom       -0.298747      0.136572      0.162175
   21 Atom       -0.294996      0.134156      0.160841
   22 Atom       -0.288753      0.133450      0.155304
   23 Atom       -0.288724      0.133477      0.155248
   24 Atom       -0.286831      0.133219      0.153612
   25 Atom       -0.286831      0.133233      0.153598
   26 Atom       -0.292685      0.138978      0.153707
   27 Atom       -0.292612      0.138965      0.153647
   28 Atom       -0.296072      0.141435      0.154637
   29 Atom       -0.296069      0.141421      0.154649
   30 Atom       -0.303571      0.148043      0.155528
   31 Atom       -0.301397      0.146171      0.155226
   32 Atom       -0.301388      0.146167      0.155220
 -----------------------------------------------------

 Test job not archived.
 1|1|UNPC-NP-ALMACH|FOpt|RB3LYP|6-311++G(d,p)|C9H20N1O2(1+)|HERA|15-Aug
 -2018|0||# RB3LYP/6-311++G** Opt Test prop=EFG||C9NH20O2||1,1|N,1.7985
 97611,-1.3741851529,1.8755440695|C,2.537117506,-0.0634119983,1.9756907
 206|C,2.7512936626,-2.4943129642,2.2217025535|C,0.6576776125,-1.388251
 9787,2.8612519398|C,1.3012438944,-1.6175705927,0.4558679549|C,0.317430
 8305,-0.5906471978,-0.1120373157|O,0.0662192612,-1.1166236144,-1.40602
 3931|C,-0.7931036356,-0.4998739469,-2.3246446291|O,-0.9220023545,-1.04
 12098346,-3.3766946488|C,-1.465525879,0.7834592068,-1.890183071|C,-2.3
 843860723,1.3701805924,-2.9667836031|C,-3.0532055941,2.6679623362,-2.5
 091168622|H,1.846368785,0.7576998949,1.8001524368|H,3.333734428,-0.049
 9794094,1.2335823785|H,2.9592524029,0.0228585716,2.9756465008|H,2.2206
 480425,-3.4423480757,2.1542425077|H,3.5815712804,-2.4815617399,1.51788
 36643|H,3.1178082587,-2.3421031412,3.2354556313|H,0.1116582064,-2.3242
 521441,2.7553260623|H,-0.0008719909,-0.5451975485,2.6672546109|H,1.065
 9507599,-1.3078882182,3.8674287513|H,2.1831695439,-1.658116269,-0.1837
 583444|H,0.8313636258,-2.6013121773,0.4514922511|H,-0.6015684501,-0.53
 81825511,0.4798097653|H,0.761060894,0.4080717534,-0.168808865|H,-2.034
 2947113,0.5892301804,-0.9717020332|H,-0.6902735555,1.5109009299,-1.616
 814346|H,-1.8011666082,1.5438904355,-3.8745334468|H,-3.1405703732,0.62
 67886949,-3.2312537337|H,-3.7012843176,3.0638916942,-3.2934694015|H,-3
 .6721127428,2.5111632864,-1.6200457791|H,-2.3148683207,3.4405379782,-2
 .2723477881||Version=EM64W-G09RevD.01|State=1-A|HF=-560.1209548|RMSD=6
 .321e-009|RMSF=6.434e-006|Dipole=2.6190802,-0.4936293,4.805767|Quadrup
 ole=3.940129,-6.094144,2.154015,-8.6744732,14.910506,-13.9727225|PG=C0
 1 [X(C9H20N1O2)]||@


 Make no judgements where you have no compassion.
                               -- Anne McCaffrey
 Job cpu time:       0 days  0 hours 19 minutes 37.0 seconds.
 File lengths (MBytes):  RWF=     74 Int=      0 D2E=      0 Chk=     12 Scr=      1
 Normal termination of Gaussian 09 at Wed Aug 15 19:16:10 2018.
