 Entering Link 1 = C:\G09W\l1.exe PID=      1648.
  
 Copyright (c) 1988,1990,1992,1993,1995,1998,2003,2009,2013,
            Gaussian, Inc.  All Rights Reserved.
  
 This is part of the Gaussian(R) 09 program.  It is based on
 the Gaussian(R) 03 system (copyright 2003, Gaussian, Inc.),
 the Gaussian(R) 98 system (copyright 1998, Gaussian, Inc.),
 the Gaussian(R) 94 system (copyright 1995, Gaussian, Inc.),
 the Gaussian 92(TM) system (copyright 1992, Gaussian, Inc.),
 the Gaussian 90(TM) system (copyright 1990, Gaussian, Inc.),
 the Gaussian 88(TM) system (copyright 1988, Gaussian, Inc.),
 the Gaussian 86(TM) system (copyright 1986, Carnegie Mellon
 University), and the Gaussian 82(TM) system (copyright 1983,
 Carnegie Mellon University). Gaussian is a federally registered
 trademark of Gaussian, Inc.
  
 This software contains proprietary and confidential information,
 including trade secrets, belonging to Gaussian, Inc.
  
 This software is provided under written license and may be
 used, copied, transmitted, or stored only in accord with that
 written license.
  
 The following legend is applicable only to US Government
 contracts under FAR:
  
                    RESTRICTED RIGHTS LEGEND
  
 Use, reproduction and disclosure by the US Government is
 subject to restrictions as set forth in subparagraphs (a)
 and (c) of the Commercial Computer Software - Restricted
 Rights clause in FAR 52.227-19.
  
 Gaussian, Inc.
 340 Quinnipiac St., Bldg. 40, Wallingford CT 06492
  
  
 ---------------------------------------------------------------
 Warning -- This program may not be used in any manner that
 competes with the business of Gaussian, Inc. or will provide
 assistance to any competitor of Gaussian, Inc.  The licensee
 of this program is prohibited from giving any competitor of
 Gaussian, Inc. access to this program.  By using this program,
 the user acknowledges that Gaussian, Inc. is engaged in the
 business of creating and licensing software in the field of
 computational chemistry and represents and warrants to the
 licensee that it is not a competitor of Gaussian, Inc. and that
 it will not use this program in any manner prohibited above.
 ---------------------------------------------------------------
  

 Cite this work as:
 Gaussian 09, Revision D.01,
 M. J. Frisch, G. W. Trucks, H. B. Schlegel, G. E. Scuseria, 
 M. A. Robb, J. R. Cheeseman, G. Scalmani, V. Barone, B. Mennucci, 
 G. A. Petersson, H. Nakatsuji, M. Caricato, X. Li, H. P. Hratchian, 
 A. F. Izmaylov, J. Bloino, G. Zheng, J. L. Sonnenberg, M. Hada, 
 M. Ehara, K. Toyota, R. Fukuda, J. Hasegawa, M. Ishida, T. Nakajima, 
 Y. Honda, O. Kitao, H. Nakai, T. Vreven, J. A. Montgomery, Jr., 
 J. E. Peralta, F. Ogliaro, M. Bearpark, J. J. Heyd, E. Brothers, 
 K. N. Kudin, V. N. Staroverov, T. Keith, R. Kobayashi, J. Normand, 
 K. Raghavachari, A. Rendell, J. C. Burant, S. S. Iyengar, J. Tomasi, 
 M. Cossi, N. Rega, J. M. Millam, M. Klene, J. E. Knox, J. B. Cross, 
 V. Bakken, C. Adamo, J. Jaramillo, R. Gomperts, R. E. Stratmann, 
 O. Yazyev, A. J. Austin, R. Cammi, C. Pomelli, J. W. Ochterski, 
 R. L. Martin, K. Morokuma, V. G. Zakrzewski, G. A. Voth, 
 P. Salvador, J. J. Dannenberg, S. Dapprich, A. D. Daniels, 
 O. Farkas, J. B. Foresman, J. V. Ortiz, J. Cioslowski, 
 and D. J. Fox, Gaussian, Inc., Wallingford CT, 2013.
 
 ******************************************
 Gaussian 09:  EM64W-G09RevD.01 13-Apr-2013
                05-Sep-2018 
 ******************************************
 %Chk=Anth_366.chk
 %Mem=128GB
 %NProcShared=20
 Will use up to   20 processors via shared memory.
 -------------------------------------
 # RB3LYP/6-311++G** Opt Test prop=EFG
 -------------------------------------
 1/14=-1,18=20,19=15,26=3,38=1/1,3;
 2/9=110,12=2,17=6,18=5,40=1/2;
 3/5=4,6=6,7=1111,11=2,16=1,25=1,30=1,71=1,74=-5,116=1/1,2,3;
 4//1;
 5/5=2,38=5/2;
 6/7=2,8=2,9=2,10=2,14=1,28=1/1,2;
 7//1,2,3,16;
 1/14=-1,18=20,19=15,26=3/3(2);
 2/9=110/2;
 99//99;
 2/9=110/2;
 3/5=4,6=6,7=1111,11=2,16=1,25=1,30=1,71=1,74=-5,116=1/1,2,3;
 4/5=5,16=3,69=1/1;
 5/5=2,38=5/2;
 7//1,2,3,16;
 1/14=-1,18=20,19=15,26=3/3(-5);
 2/9=110/2;
 6/7=2,8=2,9=2,10=2,14=1,19=2,28=1/1,2;
 99/9=1/99;
 -------
 C15NH34
 -------
 Symbolic Z-matrix:
 Charge =  1 Multiplicity = 1
 N                     3.6955   -0.00356   5.8364 
 C                     3.81675   1.51077   5.8406 
 C                     4.99901  -0.5889    6.36231 
 C                     2.57433  -0.41873   6.77381 
 C                     3.47696  -0.54525   4.42653 
 C                     2.19139  -0.02976   3.75464 
 C                     2.02488  -0.62113   2.3425 
 C                     0.75372  -0.10626   1.64694 
 C                     0.58642  -0.70243   0.23967 
 C                    -0.67585  -0.17542  -0.46224 
 C                    -0.8451   -0.77489  -1.86785 
 C                    -2.09932  -0.23669  -2.57568 
 C                    -2.27013  -0.83843  -3.98011 
 C                    -3.51822  -0.29194  -4.69217 
 C                    -3.69061  -0.89514  -6.09528 
 C                    -4.93411  -0.34325  -6.80505 
 H                     2.86307   2.00556   5.5547 
 H                     4.61114   1.85131   5.13847 
 H                     4.07657   1.88722   6.85598 
 H                     4.9571   -1.70133   6.39534 
 H                     5.86007  -0.29894   5.71821 
 H                     5.21765  -0.23133   7.39403 
 H                     2.43922  -1.52406   6.77244 
 H                     1.60515   0.05106   6.49828 
 H                     2.79234  -0.10469   7.81978 
 H                     4.34582  -0.26972   3.7827 
 H                     3.43755  -1.66001   4.45765 
 H                     1.29236  -0.30789   4.35089 
 H                     2.21263   1.08027   3.66091 
 H                     2.91472  -0.35781   1.72246 
 H                     1.9829   -1.7344    2.40915 
 H                    -0.13813  -0.36505   2.26582 
 H                     0.79782   1.00645   1.57368 
 H                     1.48263  -0.45234  -0.3765 
 H                     0.53168  -1.81461   0.31357 
 H                    -1.57257  -0.42135   0.15486 
 H                    -0.61816   0.93641  -0.53918 
 H                     0.05577  -0.53686  -2.48202 
 H                    -0.91221  -1.88614  -1.79008 
 H                    -3.00061  -0.47137  -1.96083 
 H                    -2.02975   0.87425  -2.6558 
 H                    -1.36589  -0.60973  -4.59284 
 H                    -2.34675  -1.94883  -3.89945 
 H                    -4.42314  -0.51832  -4.07959 
 H                    -3.44041   0.81823  -4.77512 
 H                    -2.7871   -0.67225  -6.71185 
 H                    -3.77488  -2.00556  -6.01718 
 H                    -5.04649  -0.79004  -7.81978 
 H                    -5.86007  -0.57234  -6.22963 
 H                    -4.86973   0.76219  -6.92702 
 

 GradGradGradGradGradGradGradGradGradGradGradGradGradGradGradGradGradGrad
 Berny optimization.
 Initialization pass.
                           ----------------------------
                           !    Initial Parameters    !
                           ! (Angstroms and Degrees)  !
 --------------------------                            --------------------------
 ! Name  Definition              Value          Derivative Info.                !
 --------------------------------------------------------------------------------
 ! R1    R(1,2)                  1.5192         estimate D2E/DX2                !
 ! R2    R(1,3)                  1.5226         estimate D2E/DX2                !
 ! R3    R(1,4)                  1.5193         estimate D2E/DX2                !
 ! R4    R(1,5)                  1.5261         estimate D2E/DX2                !
 ! R5    R(2,17)                 1.1118         estimate D2E/DX2                !
 ! R6    R(2,18)                 1.1136         estimate D2E/DX2                !
 ! R7    R(2,19)                 1.1136         estimate D2E/DX2                !
 ! R8    R(3,20)                 1.1137         estimate D2E/DX2                !
 ! R9    R(3,21)                 1.1137         estimate D2E/DX2                !
 ! R10   R(3,22)                 1.1136         estimate D2E/DX2                !
 ! R11   R(4,23)                 1.1136         estimate D2E/DX2                !
 ! R12   R(4,24)                 1.1117         estimate D2E/DX2                !
 ! R13   R(4,25)                 1.1136         estimate D2E/DX2                !
 ! R14   R(5,6)                  1.5394         estimate D2E/DX2                !
 ! R15   R(5,26)                 1.1159         estimate D2E/DX2                !
 ! R16   R(5,27)                 1.1159         estimate D2E/DX2                !
 ! R17   R(6,7)                  1.54           estimate D2E/DX2                !
 ! R18   R(6,28)                 1.1141         estimate D2E/DX2                !
 ! R19   R(6,29)                 1.1142         estimate D2E/DX2                !
 ! R20   R(7,8)                  1.5378         estimate D2E/DX2                !
 ! R21   R(7,30)                 1.1161         estimate D2E/DX2                !
 ! R22   R(7,31)                 1.1161         estimate D2E/DX2                !
 ! R23   R(8,9)                  1.5375         estimate D2E/DX2                !
 ! R24   R(8,32)                 1.116          estimate D2E/DX2                !
 ! R25   R(8,33)                 1.116          estimate D2E/DX2                !
 ! R26   R(9,10)                 1.5374         estimate D2E/DX2                !
 ! R27   R(9,34)                 1.116          estimate D2E/DX2                !
 ! R28   R(9,35)                 1.116          estimate D2E/DX2                !
 ! R29   R(10,11)                1.5375         estimate D2E/DX2                !
 ! R30   R(10,36)                1.116          estimate D2E/DX2                !
 ! R31   R(10,37)                1.116          estimate D2E/DX2                !
 ! R32   R(11,12)                1.5375         estimate D2E/DX2                !
 ! R33   R(11,38)                1.116          estimate D2E/DX2                !
 ! R34   R(11,39)                1.116          estimate D2E/DX2                !
 ! R35   R(12,13)                1.5374         estimate D2E/DX2                !
 ! R36   R(12,40)                1.116          estimate D2E/DX2                !
 ! R37   R(12,41)                1.116          estimate D2E/DX2                !
 ! R38   R(13,14)                1.5373         estimate D2E/DX2                !
 ! R39   R(13,42)                1.116          estimate D2E/DX2                !
 ! R40   R(13,43)                1.116          estimate D2E/DX2                !
 ! R41   R(14,15)                1.537          estimate D2E/DX2                !
 ! R42   R(14,44)                1.116          estimate D2E/DX2                !
 ! R43   R(14,45)                1.116          estimate D2E/DX2                !
 ! R44   R(15,16)                1.5345         estimate D2E/DX2                !
 ! R45   R(15,46)                1.1163         estimate D2E/DX2                !
 ! R46   R(15,47)                1.1163         estimate D2E/DX2                !
 ! R47   R(16,48)                1.1144         estimate D2E/DX2                !
 ! R48   R(16,49)                1.114          estimate D2E/DX2                !
 ! R49   R(16,50)                1.114          estimate D2E/DX2                !
 ! A1    A(2,1,3)              108.2957         estimate D2E/DX2                !
 ! A2    A(2,1,4)              109.2444         estimate D2E/DX2                !
 ! A3    A(2,1,5)              111.58           estimate D2E/DX2                !
 ! A4    A(3,1,4)              108.277          estimate D2E/DX2                !
 ! A5    A(3,1,5)              107.7724         estimate D2E/DX2                !
 ! A6    A(4,1,5)              111.5525         estimate D2E/DX2                !
 ! A7    A(1,2,17)             111.9903         estimate D2E/DX2                !
 ! A8    A(1,2,18)             111.102          estimate D2E/DX2                !
 ! A9    A(1,2,19)             110.983          estimate D2E/DX2                !
 ! A10   A(17,2,18)            108.2819         estimate D2E/DX2                !
 ! A11   A(17,2,19)            106.5075         estimate D2E/DX2                !
 ! A12   A(18,2,19)            107.7635         estimate D2E/DX2                !
 ! A13   A(1,3,20)             111.2239         estimate D2E/DX2                !
 ! A14   A(1,3,21)             111.2259         estimate D2E/DX2                !
 ! A15   A(1,3,22)             111.3858         estimate D2E/DX2                !
 ! A16   A(20,3,21)            107.8368         estimate D2E/DX2                !
 ! A17   A(20,3,22)            107.4957         estimate D2E/DX2                !
 ! A18   A(21,3,22)            107.4827         estimate D2E/DX2                !
 ! A19   A(1,4,23)             111.1022         estimate D2E/DX2                !
 ! A20   A(1,4,24)             112.0215         estimate D2E/DX2                !
 ! A21   A(1,4,25)             110.9769         estimate D2E/DX2                !
 ! A22   A(23,4,24)            108.2626         estimate D2E/DX2                !
 ! A23   A(23,4,25)            107.7476         estimate D2E/DX2                !
 ! A24   A(24,4,25)            106.5158         estimate D2E/DX2                !
 ! A25   A(1,5,6)              113.8249         estimate D2E/DX2                !
 ! A26   A(1,5,26)             109.5038         estimate D2E/DX2                !
 ! A27   A(1,5,27)             109.5047         estimate D2E/DX2                !
 ! A28   A(6,5,26)             108.4034         estimate D2E/DX2                !
 ! A29   A(6,5,27)             108.4935         estimate D2E/DX2                !
 ! A30   A(26,5,27)            106.8725         estimate D2E/DX2                !
 ! A31   A(5,6,7)              111.2182         estimate D2E/DX2                !
 ! A32   A(5,6,28)             110.8989         estimate D2E/DX2                !
 ! A33   A(5,6,29)             110.7572         estimate D2E/DX2                !
 ! A34   A(7,6,28)             107.9171         estimate D2E/DX2                !
 ! A35   A(7,6,29)             107.9085         estimate D2E/DX2                !
 ! A36   A(28,6,29)            108.0072         estimate D2E/DX2                !
 ! A37   A(6,7,8)              112.0597         estimate D2E/DX2                !
 ! A38   A(6,7,30)             109.428          estimate D2E/DX2                !
 ! A39   A(6,7,31)             109.4118         estimate D2E/DX2                !
 ! A40   A(8,7,30)             109.1951         estimate D2E/DX2                !
 ! A41   A(8,7,31)             109.2627         estimate D2E/DX2                !
 ! A42   A(30,7,31)            107.3685         estimate D2E/DX2                !
 ! A43   A(7,8,9)              111.9709         estimate D2E/DX2                !
 ! A44   A(7,8,32)             109.3981         estimate D2E/DX2                !
 ! A45   A(7,8,33)             109.3209         estimate D2E/DX2                !
 ! A46   A(9,8,32)             109.3128         estimate D2E/DX2                !
 ! A47   A(9,8,33)             109.3193         estimate D2E/DX2                !
 ! A48   A(32,8,33)            107.4096         estimate D2E/DX2                !
 ! A49   A(8,9,10)             111.9812         estimate D2E/DX2                !
 ! A50   A(8,9,34)             109.3352         estimate D2E/DX2                !
 ! A51   A(8,9,35)             109.3395         estimate D2E/DX2                !
 ! A52   A(10,9,34)            109.2955         estimate D2E/DX2                !
 ! A53   A(10,9,35)            109.3647         estimate D2E/DX2                !
 ! A54   A(34,9,35)            107.4153         estimate D2E/DX2                !
 ! A55   A(9,10,11)            111.9699         estimate D2E/DX2                !
 ! A56   A(9,10,36)            109.3728         estimate D2E/DX2                !
 ! A57   A(9,10,37)            109.3017         estimate D2E/DX2                !
 ! A58   A(11,10,36)           109.3398         estimate D2E/DX2                !
 ! A59   A(11,10,37)           109.3371         estimate D2E/DX2                !
 ! A60   A(36,10,37)           107.4103         estimate D2E/DX2                !
 ! A61   A(10,11,12)           111.9765         estimate D2E/DX2                !
 ! A62   A(10,11,38)           109.3361         estimate D2E/DX2                !
 ! A63   A(10,11,39)           109.3394         estimate D2E/DX2                !
 ! A64   A(12,11,38)           109.2988         estimate D2E/DX2                !
 ! A65   A(12,11,39)           109.3658         estimate D2E/DX2                !
 ! A66   A(38,11,39)           107.415          estimate D2E/DX2                !
 ! A67   A(11,12,13)           111.9739         estimate D2E/DX2                !
 ! A68   A(11,12,40)           109.3638         estimate D2E/DX2                !
 ! A69   A(11,12,41)           109.3094         estimate D2E/DX2                !
 ! A70   A(13,12,40)           109.3454         estimate D2E/DX2                !
 ! A71   A(13,12,41)           109.3275         estimate D2E/DX2                !
 ! A72   A(40,12,41)           107.4116         estimate D2E/DX2                !
 ! A73   A(12,13,14)           111.973          estimate D2E/DX2                !
 ! A74   A(12,13,42)           109.3494         estimate D2E/DX2                !
 ! A75   A(12,13,43)           109.3327         estimate D2E/DX2                !
 ! A76   A(14,13,42)           109.3086         estimate D2E/DX2                !
 ! A77   A(14,13,43)           109.3562         estimate D2E/DX2                !
 ! A78   A(42,13,43)           107.4116         estimate D2E/DX2                !
 ! A79   A(13,14,15)           111.9861         estimate D2E/DX2                !
 ! A80   A(13,14,44)           109.3876         estimate D2E/DX2                !
 ! A81   A(13,14,45)           109.3571         estimate D2E/DX2                !
 ! A82   A(15,14,44)           109.3019         estimate D2E/DX2                !
 ! A83   A(15,14,45)           109.2919         estimate D2E/DX2                !
 ! A84   A(44,14,45)           107.4062         estimate D2E/DX2                !
 ! A85   A(14,15,16)           111.8389         estimate D2E/DX2                !
 ! A86   A(14,15,46)           109.5768         estimate D2E/DX2                !
 ! A87   A(14,15,47)           109.571          estimate D2E/DX2                !
 ! A88   A(16,15,46)           109.184          estimate D2E/DX2                !
 ! A89   A(16,15,47)           109.2048         estimate D2E/DX2                !
 ! A90   A(46,15,47)           107.3581         estimate D2E/DX2                !
 ! A91   A(15,16,48)           111.0198         estimate D2E/DX2                !
 ! A92   A(15,16,49)           111.1433         estimate D2E/DX2                !
 ! A93   A(15,16,50)           111.1436         estimate D2E/DX2                !
 ! A94   A(48,16,49)           107.7014         estimate D2E/DX2                !
 ! A95   A(48,16,50)           107.696          estimate D2E/DX2                !
 ! A96   A(49,16,50)           107.9785         estimate D2E/DX2                !
 ! D1    D(3,1,2,17)          -174.778          estimate D2E/DX2                !
 ! D2    D(3,1,2,18)            63.9927         estimate D2E/DX2                !
 ! D3    D(3,1,2,19)           -55.8915         estimate D2E/DX2                !
 ! D4    D(4,1,2,17)           -57.0493         estimate D2E/DX2                !
 ! D5    D(4,1,2,18)          -178.2786         estimate D2E/DX2                !
 ! D6    D(4,1,2,19)            61.8372         estimate D2E/DX2                !
 ! D7    D(5,1,2,17)            66.7652         estimate D2E/DX2                !
 ! D8    D(5,1,2,18)           -54.4641         estimate D2E/DX2                !
 ! D9    D(5,1,2,19)          -174.3483         estimate D2E/DX2                !
 ! D10   D(2,1,3,20)           179.0907         estimate D2E/DX2                !
 ! D11   D(2,1,3,21)           -60.6879         estimate D2E/DX2                !
 ! D12   D(2,1,3,22)            59.1939         estimate D2E/DX2                !
 ! D13   D(4,1,3,20)            60.745          estimate D2E/DX2                !
 ! D14   D(4,1,3,21)          -179.0336         estimate D2E/DX2                !
 ! D15   D(4,1,3,22)           -59.1518         estimate D2E/DX2                !
 ! D16   D(5,1,3,20)           -60.0604         estimate D2E/DX2                !
 ! D17   D(5,1,3,21)            60.1611         estimate D2E/DX2                !
 ! D18   D(5,1,3,22)          -179.9572         estimate D2E/DX2                !
 ! D19   D(2,1,4,23)           178.3936         estimate D2E/DX2                !
 ! D20   D(2,1,4,24)            57.1674         estimate D2E/DX2                !
 ! D21   D(2,1,4,25)           -61.7462         estimate D2E/DX2                !
 ! D22   D(3,1,4,23)           -63.866          estimate D2E/DX2                !
 ! D23   D(3,1,4,24)           174.9078         estimate D2E/DX2                !
 ! D24   D(3,1,4,25)            55.9942         estimate D2E/DX2                !
 ! D25   D(5,1,4,23)            54.5629         estimate D2E/DX2                !
 ! D26   D(5,1,4,24)           -66.6633         estimate D2E/DX2                !
 ! D27   D(5,1,4,25)           174.4231         estimate D2E/DX2                !
 ! D28   D(2,1,5,6)            -60.8387         estimate D2E/DX2                !
 ! D29   D(2,1,5,26)            60.6631         estimate D2E/DX2                !
 ! D30   D(2,1,5,27)           177.5426         estimate D2E/DX2                !
 ! D31   D(3,1,5,6)           -179.6079         estimate D2E/DX2                !
 ! D32   D(3,1,5,26)           -58.1061         estimate D2E/DX2                !
 ! D33   D(3,1,5,27)            58.7734         estimate D2E/DX2                !
 ! D34   D(4,1,5,6)             61.6619         estimate D2E/DX2                !
 ! D35   D(4,1,5,26)          -176.8363         estimate D2E/DX2                !
 ! D36   D(4,1,5,27)           -59.9569         estimate D2E/DX2                !
 ! D37   D(1,5,6,7)           -179.5509         estimate D2E/DX2                !
 ! D38   D(1,5,6,28)           -59.4518         estimate D2E/DX2                !
 ! D39   D(1,5,6,29)            60.4555         estimate D2E/DX2                !
 ! D40   D(26,5,6,7)            58.3379         estimate D2E/DX2                !
 ! D41   D(26,5,6,28)          178.437          estimate D2E/DX2                !
 ! D42   D(26,5,6,29)          -61.6557         estimate D2E/DX2                !
 ! D43   D(27,5,6,7)           -57.3728         estimate D2E/DX2                !
 ! D44   D(27,5,6,28)           62.7263         estimate D2E/DX2                !
 ! D45   D(27,5,6,29)         -177.3664         estimate D2E/DX2                !
 ! D46   D(5,6,7,8)           -179.3598         estimate D2E/DX2                !
 ! D47   D(5,6,7,30)           -58.0875         estimate D2E/DX2                !
 ! D48   D(5,6,7,31)            59.2936         estimate D2E/DX2                !
 ! D49   D(28,6,7,8)            58.7907         estimate D2E/DX2                !
 ! D50   D(28,6,7,30)         -179.937          estimate D2E/DX2                !
 ! D51   D(28,6,7,31)          -62.5559         estimate D2E/DX2                !
 ! D52   D(29,6,7,8)           -57.6915         estimate D2E/DX2                !
 ! D53   D(29,6,7,30)           63.5808         estimate D2E/DX2                !
 ! D54   D(29,6,7,31)         -179.0381         estimate D2E/DX2                !
 ! D55   D(6,7,8,9)           -179.7614         estimate D2E/DX2                !
 ! D56   D(6,7,8,32)           -58.4195         estimate D2E/DX2                !
 ! D57   D(6,7,8,33)            58.9413         estimate D2E/DX2                !
 ! D58   D(30,7,8,9)            58.8323         estimate D2E/DX2                !
 ! D59   D(30,7,8,32)         -179.8258         estimate D2E/DX2                !
 ! D60   D(30,7,8,33)          -62.465          estimate D2E/DX2                !
 ! D61   D(31,7,8,9)           -58.3291         estimate D2E/DX2                !
 ! D62   D(31,7,8,32)           63.0128         estimate D2E/DX2                !
 ! D63   D(31,7,8,33)         -179.6263         estimate D2E/DX2                !
 ! D64   D(7,8,9,10)          -179.3438         estimate D2E/DX2                !
 ! D65   D(7,8,9,34)           -58.0601         estimate D2E/DX2                !
 ! D66   D(7,8,9,35)            59.2821         estimate D2E/DX2                !
 ! D67   D(32,8,9,10)           59.2651         estimate D2E/DX2                !
 ! D68   D(32,8,9,34)         -179.4512         estimate D2E/DX2                !
 ! D69   D(32,8,9,35)          -62.109          estimate D2E/DX2                !
 ! D70   D(33,8,9,10)          -58.0456         estimate D2E/DX2                !
 ! D71   D(33,8,9,34)           63.2381         estimate D2E/DX2                !
 ! D72   D(33,8,9,35)         -179.4197         estimate D2E/DX2                !
 ! D73   D(8,9,10,11)         -179.8325         estimate D2E/DX2                !
 ! D74   D(8,9,10,36)          -58.4744         estimate D2E/DX2                !
 ! D75   D(8,9,10,37)           58.8616         estimate D2E/DX2                !
 ! D76   D(34,9,10,11)          58.8609         estimate D2E/DX2                !
 ! D77   D(34,9,10,36)        -179.7811         estimate D2E/DX2                !
 ! D78   D(34,9,10,37)         -62.445          estimate D2E/DX2                !
 ! D79   D(35,9,10,11)         -58.4729         estimate D2E/DX2                !
 ! D80   D(35,9,10,36)          62.8852         estimate D2E/DX2                !
 ! D81   D(35,9,10,37)        -179.7788         estimate D2E/DX2                !
 ! D82   D(9,10,11,12)        -179.3974         estimate D2E/DX2                !
 ! D83   D(9,10,11,38)         -58.112          estimate D2E/DX2                !
 ! D84   D(9,10,11,39)          59.2303         estimate D2E/DX2                !
 ! D85   D(36,10,11,12)         59.2255         estimate D2E/DX2                !
 ! D86   D(36,10,11,38)       -179.4891         estimate D2E/DX2                !
 ! D87   D(36,10,11,39)        -62.1468         estimate D2E/DX2                !
 ! D88   D(37,10,11,12)        -58.1119         estimate D2E/DX2                !
 ! D89   D(37,10,11,38)         63.1736         estimate D2E/DX2                !
 ! D90   D(37,10,11,39)       -179.4842         estimate D2E/DX2                !
 ! D91   D(10,11,12,13)       -179.8798         estimate D2E/DX2                !
 ! D92   D(10,11,12,40)        -58.5183         estimate D2E/DX2                !
 ! D93   D(10,11,12,41)         58.8185         estimate D2E/DX2                !
 ! D94   D(38,11,12,13)         58.8132         estimate D2E/DX2                !
 ! D95   D(38,11,12,40)       -179.8252         estimate D2E/DX2                !
 ! D96   D(38,11,12,41)        -62.4884         estimate D2E/DX2                !
 ! D97   D(39,11,12,13)        -58.5227         estimate D2E/DX2                !
 ! D98   D(39,11,12,40)         62.8388         estimate D2E/DX2                !
 ! D99   D(39,11,12,41)       -179.8244         estimate D2E/DX2                !
 ! D100  D(11,12,13,14)       -179.5519         estimate D2E/DX2                !
 ! D101  D(11,12,13,42)        -58.2473         estimate D2E/DX2                !
 ! D102  D(11,12,13,43)         59.0948         estimate D2E/DX2                !
 ! D103  D(40,12,13,14)         59.0759         estimate D2E/DX2                !
 ! D104  D(40,12,13,42)       -179.6195         estimate D2E/DX2                !
 ! D105  D(40,12,13,43)        -62.2774         estimate D2E/DX2                !
 ! D106  D(41,12,13,14)        -58.2607         estimate D2E/DX2                !
 ! D107  D(41,12,13,42)         63.0439         estimate D2E/DX2                !
 ! D108  D(41,12,13,43)       -179.614          estimate D2E/DX2                !
 ! D109  D(12,13,14,15)       -179.901          estimate D2E/DX2                !
 ! D110  D(12,13,14,44)        -58.57           estimate D2E/DX2                !
 ! D111  D(12,13,14,45)         58.8017         estimate D2E/DX2                !
 ! D112  D(42,13,14,15)         58.7709         estimate D2E/DX2                !
 ! D113  D(42,13,14,44)       -179.8982         estimate D2E/DX2                !
 ! D114  D(42,13,14,45)        -62.5265         estimate D2E/DX2                !
 ! D115  D(43,13,14,15)        -58.5612         estimate D2E/DX2                !
 ! D116  D(43,13,14,44)         62.7698         estimate D2E/DX2                !
 ! D117  D(43,13,14,45)       -179.8586         estimate D2E/DX2                !
 ! D118  D(13,14,15,16)       -179.7734         estimate D2E/DX2                !
 ! D119  D(13,14,15,46)        -58.5586         estimate D2E/DX2                !
 ! D120  D(13,14,15,47)         58.9895         estimate D2E/DX2                !
 ! D121  D(44,14,15,16)         58.8462         estimate D2E/DX2                !
 ! D122  D(44,14,15,46)       -179.939          estimate D2E/DX2                !
 ! D123  D(44,14,15,47)        -62.3909         estimate D2E/DX2                !
 ! D124  D(45,14,15,16)        -58.4384         estimate D2E/DX2                !
 ! D125  D(45,14,15,46)         62.7764         estimate D2E/DX2                !
 ! D126  D(45,14,15,47)       -179.6755         estimate D2E/DX2                !
 ! D127  D(14,15,16,48)       -179.9411         estimate D2E/DX2                !
 ! D128  D(14,15,16,49)        -60.0833         estimate D2E/DX2                !
 ! D129  D(14,15,16,50)         60.2077         estimate D2E/DX2                !
 ! D130  D(46,15,16,48)         58.6171         estimate D2E/DX2                !
 ! D131  D(46,15,16,49)        178.4748         estimate D2E/DX2                !
 ! D132  D(46,15,16,50)        -61.2341         estimate D2E/DX2                !
 ! D133  D(47,15,16,48)        -58.4923         estimate D2E/DX2                !
 ! D134  D(47,15,16,49)         61.3654         estimate D2E/DX2                !
 ! D135  D(47,15,16,50)       -178.3435         estimate D2E/DX2                !
 --------------------------------------------------------------------------------
 Trust Radius=3.00D-01 FncErr=1.00D-07 GrdErr=1.00D-06
 Number of steps in this run=    290 maximum allowed number of steps=    300.
 GradGradGradGradGradGradGradGradGradGradGradGradGradGradGradGradGradGrad

                          Input orientation:                          
 ---------------------------------------------------------------------
 Center     Atomic      Atomic             Coordinates (Angstroms)
 Number     Number       Type             X           Y           Z
 ---------------------------------------------------------------------
      1          7           0        3.695504   -0.003558    5.836403
      2          6           0        3.816754    1.510769    5.840598
      3          6           0        4.999014   -0.588896    6.362308
      4          6           0        2.574331   -0.418732    6.773812
      5          6           0        3.476964   -0.545247    4.426526
      6          6           0        2.191389   -0.029755    3.754640
      7          6           0        2.024875   -0.621129    2.342500
      8          6           0        0.753718   -0.106262    1.646938
      9          6           0        0.586418   -0.702432    0.239671
     10          6           0       -0.675848   -0.175420   -0.462240
     11          6           0       -0.845100   -0.774893   -1.867850
     12          6           0       -2.099324   -0.236694   -2.575682
     13          6           0       -2.270127   -0.838432   -3.980105
     14          6           0       -3.518222   -0.291935   -4.692167
     15          6           0       -3.690613   -0.895142   -6.095282
     16          6           0       -4.934110   -0.343249   -6.805048
     17          1           0        2.863074    2.005562    5.554704
     18          1           0        4.611143    1.851307    5.138466
     19          1           0        4.076566    1.887218    6.855977
     20          1           0        4.957098   -1.701329    6.395342
     21          1           0        5.860073   -0.298936    5.718210
     22          1           0        5.217651   -0.231327    7.394027
     23          1           0        2.439223   -1.524061    6.772436
     24          1           0        1.605146    0.051055    6.498281
     25          1           0        2.792342   -0.104691    7.819777
     26          1           0        4.345818   -0.269716    3.782695
     27          1           0        3.437552   -1.660010    4.457649
     28          1           0        1.292359   -0.307892    4.350888
     29          1           0        2.212627    1.080272    3.660909
     30          1           0        2.914720   -0.357809    1.722460
     31          1           0        1.982895   -1.734396    2.409153
     32          1           0       -0.138130   -0.365050    2.265820
     33          1           0        0.797817    1.006445    1.573675
     34          1           0        1.482625   -0.452339   -0.376500
     35          1           0        0.531679   -1.814612    0.313573
     36          1           0       -1.572567   -0.421350    0.154863
     37          1           0       -0.618159    0.936412   -0.539177
     38          1           0        0.055770   -0.536857   -2.482016
     39          1           0       -0.912214   -1.886142   -1.790076
     40          1           0       -3.000608   -0.471372   -1.960826
     41          1           0       -2.029753    0.874246   -2.655800
     42          1           0       -1.365889   -0.609726   -4.592837
     43          1           0       -2.346752   -1.948830   -3.899453
     44          1           0       -4.423139   -0.518320   -4.079593
     45          1           0       -3.440413    0.818234   -4.775121
     46          1           0       -2.787096   -0.672246   -6.711847
     47          1           0       -3.774875   -2.005562   -6.017179
     48          1           0       -5.046488   -0.790042   -7.819777
     49          1           0       -5.860073   -0.572344   -6.229634
     50          1           0       -4.869730    0.762193   -6.927023
 ---------------------------------------------------------------------
                    Distance matrix (angstroms):
                    1          2          3          4          5
     1  N    0.000000
     2  C    1.519179   0.000000
     3  C    1.522608   2.465464   0.000000
     4  C    1.519254   2.477393   2.465234   0.000000
     5  C    1.526086   2.518384   2.462883   2.518036   0.000000
     6  C    2.568421   3.060432   3.872380   3.068118   1.539437
     7  C    3.921703   4.471298   5.000540   4.469831   2.541158
     8  C    5.120183   5.439096   6.363190   5.449505   3.915978
     9  C    6.440361   6.834011   7.547886   6.835736   5.090159
    10  C    7.668843   7.921646   8.885352   7.936203   6.425158
    11  C    8.975943   9.293939  10.095730   9.300413   7.638857
    12  C   10.217512  10.434911  11.419199  10.454149   8.956624
    13  C   11.517361  11.790465  12.643899  11.802188  10.187564
    14  C   12.766041  12.961125  13.958256  12.984759  11.495536
    15  C   14.061108  14.304342  15.191937  14.320966  12.735974
    16  C   15.309863  15.489589  16.495653  15.516695  14.033361
    17  H    2.192911   1.111783   3.456252   2.728882   2.855919
    18  H    2.183125   1.113557   2.757322   3.460641   2.745304
    19  H    2.181690   1.113647   2.688077   2.753337   3.489791
    20  H    2.187798   3.453361   1.113712   2.732375   2.720948
    21  H    2.187825   2.732245   1.113715   3.453223   2.721824
    22  H    2.189749   2.722233   1.113599   2.721567   3.454649
    23  H    2.183192   3.460651   2.755951   1.113557   2.745592
    24  H    2.193322   2.730297   3.456352   1.111727   2.855074
    25  H    2.181674   2.752504   2.688507   1.113640   3.489549
    26  H    2.170591   2.772183   2.680102   3.479533   1.115949
    27  H    2.170561   3.479969   2.685735   2.765960   1.115894
    28  H    2.841563   3.449541   4.226590   2.743410   2.198763
    29  H    2.847172   2.740364   4.224646   3.473904   2.197050
    30  H    4.202338   4.611324   5.091745   5.063174   2.768253
    31  H    4.204149   5.066453   5.102605   4.596849   2.777789
    32  H    5.251332   5.651446   6.574311   5.261399   4.215451
    33  H    5.252385   5.251186   6.567052   5.677020   4.210028
    34  H    6.610477   6.924901   7.602314   7.233251   5.201450
    35  H    6.617504   7.238638   7.618836   6.917774   5.215589
    36  H    7.759318   8.068795   9.041356   7.810714   6.615151
    37  H    7.754950   7.791012   9.028272   8.093715   6.604813
    38  H    9.095503   9.359684  10.132149   9.593094   7.709254
    39  H    9.107051   9.598402  10.153168   9.362129   7.727161
    40  H   10.288515  10.548342  11.544796  10.362269   9.097399
    41  H   10.279427  10.333227  11.526952  10.572935   9.082854
    42  H   11.608367  11.841151  12.669950  12.031730  10.237494
    43  H   11.622385  12.034377  12.693047  11.852293  10.257078
    44  H   12.825924  13.054625  14.064681  12.913981  11.608894
    45  H   12.814098  12.877871  14.044439  13.079950  11.592217
    46  H   14.139654  14.350619  15.217227  14.514550  12.779590
    47  H   14.153515  14.512212  15.239415  14.368016  12.798151
    48  H   16.233676  16.445566  17.380567  16.467774  14.922503
    49  H   15.402007  15.609960  16.627599  15.500077  14.168089
    50  H   15.390083  15.460515  16.607946  15.637183  14.152024
                    6          7          8          9         10
     6  C    0.000000
     7  C    1.539997   0.000000
     8  C    2.552481   1.537769   0.000000
     9  C    3.922172   2.549051   1.537468   0.000000
    10  C    5.101406   3.919072   2.548936   1.537445   0.000000
    11  C    6.433342   5.097788   3.918804   2.548752   1.537450
    12  C    7.650230   6.430033   5.097782   3.918716   2.548858
    13  C    8.965789   7.646541   6.429877   5.097534   3.918761
    14  C   10.198870   8.962189   7.646450   6.429588   5.097543
    15  C   11.505121  10.195001   8.961941   7.646029   6.429461
    16  C   12.742764  11.497057  10.190369   8.957305   7.641477
    17  H    2.798912   4.233242   4.917298   6.384823   7.313294
    18  H    3.362823   4.540831   5.559008   6.835070   7.964157
    19  H    4.104506   5.556322   6.492255   7.915992   8.966394
    20  H    4.173322   5.117645   6.539112   7.615309   9.004716
    21  H    4.169809   5.119372   6.533547   7.615027   8.996193
    22  H    4.737513   5.988630   7.278143   8.535518   9.821272
    23  H    3.376606   4.539967   5.578693   6.839955   7.991435
    24  H    2.806738   4.230664   4.928002   6.385589   7.328238
    25  H    4.110000   5.554843   6.500764   7.917159   8.979151
    26  H    2.167933   2.753984   4.182267   5.183951   6.576131
    27  H    2.169072   2.747505   4.185355   5.180469   6.582505
    28  H    1.114059   2.160629   2.764441   4.190002   5.201691
    29  H    1.114180   2.160606   2.755423   4.186581   5.188488
    30  H    2.181876   1.116070   2.176904   2.781801   4.206942
    31  H    2.181652   1.116050   2.177767   2.778804   4.212389
    32  H    2.784900   2.179460   1.115966   2.178090   2.787008
    33  H    2.787896   2.178477   1.115988   2.178191   2.777309
    34  H    4.212747   2.777676   2.178388   1.115975   2.177852
    35  H    4.216787   2.787576   2.178445   1.115976   2.178751
    36  H    5.222940   4.215122   2.781577   2.178857   1.115976
    37  H    5.221485   4.208993   2.783579   2.177939   1.115983
    38  H    6.611649   5.211567   4.209609   2.777874   2.178393
    39  H    6.619849   5.225412   4.213830   2.786923   2.178437
    40  H    7.734236   6.617894   5.219601   4.214538   2.781700
    41  H    7.728454   6.607508   5.217534   4.208802   2.783265
    42  H    9.092358   7.719865   6.609160   5.212795   4.210298
    43  H    9.102896   7.735366   6.615922   5.223920   4.213233
    44  H   10.264789   9.101139   7.730640   6.617069   5.219676
    45  H   10.256369   9.088546   7.725818   6.608777   5.218344
    46  H   11.607991  10.253725   9.095438   7.726908   6.615270
    47  H   11.618458  10.268300   9.102427   7.737390   6.618968
    48  H   13.672309  12.381623  11.123338   9.833209   8.579837
    49  H   12.837686  11.647157  10.295623   9.133788   7.765087
    50  H   12.829049  11.635000  10.290296   9.125578   7.762808
                   11         12         13         14         15
    11  C    0.000000
    12  C    1.537453   0.000000
    13  C    2.548796   1.537422   0.000000
    14  C    3.918622   2.548692   1.537346   0.000000
    15  C    5.097312   3.918334   2.548523   1.536980   0.000000
    16  C    6.425126   5.092632   3.914373   2.543941   1.534483
    17  H    8.750760   9.785514  11.196010  12.288116  13.677978
    18  H    9.260452  10.435430  11.736052  12.935278  14.235843
    19  H   10.364111  11.472088  12.850306  13.992467  15.355966
    20  H   10.139237  11.507281  12.673882  14.026771  15.213433
    21  H   10.135787  11.495413  12.666828  14.011724  15.202949
    22  H   11.083085  12.366618  13.631078  14.912922  16.178976
    23  H    9.273757  10.471057  11.758622  12.978691  14.267046
    24  H    8.756600   9.805238  11.207386  12.312297  13.694458
    25  H   10.369680  11.489621  12.860956  14.014529  15.371480
    26  H    7.689570   9.053723  10.215441  11.561440  12.749502
    27  H    7.690025   9.063695  10.219994  11.574695  12.757747
    28  H    6.592384   7.712714   9.076245  10.242987  11.588673
    29  H    6.584718   7.695608   9.064304  10.222498  11.572976
    30  H    5.215413   6.605250   7.722233   9.084851  10.248719
    31  H    5.216412   6.614847   7.727455   9.097897  10.257605
    32  H    4.213669   5.225218   6.616727   7.735887   9.099954
    33  H    4.209090   5.211140   6.607596   7.718469   9.087075
    34  H    2.783248   4.208713   5.217105   6.607510   7.724178
    35  H    2.781212   4.214237   5.219072   6.616470   7.729592
    36  H    2.178433   2.787014   4.214084   5.224559   6.616261
    37  H    2.178403   2.778017   4.209401   5.212152   6.607940
    38  H    1.115987   2.177912   2.782987   4.209296   5.217226
    39  H    1.115987   2.178781   2.781699   4.213657   5.218849
    40  H    2.178758   1.115990   2.178491   2.785740   4.213005
    41  H    2.178056   1.115996   2.178263   2.778904   4.209421
    42  H    2.779218   2.178530   1.115972   2.177934   2.782651
    43  H    2.785767   2.178302   1.115957   2.178540   2.781706
    44  H    4.214261   2.782297   2.178952   1.115962   2.177520
    45  H    4.210217   2.783689   2.178569   1.115980   2.177403
    46  H    5.219788   4.215519   2.785191   2.181350   1.116323
    47  H    5.226381   4.216665   2.788571   2.181294   1.116348
    48  H    7.285419   6.040902   4.738523   3.516483   2.196207
    49  H    6.649522   5.254261   4.244867   2.815440   2.197454
    50  H    6.644961   5.254245   4.243143   2.816441   2.197469
                   16         17         18         19         20
    16  C    0.000000
    17  H   14.801232   0.000000
    18  H   15.445888   1.803550   0.000000
    19  H   16.516382   1.783222   1.799140   0.000000
    20  H   16.550851   4.339660   3.784263   3.723599   0.000000
    21  H   16.533250   3.784105   2.553326   3.042151   1.800160
    22  H   17.455214   3.732401   3.129340   2.465726   1.796153
    23  H   15.495432   3.757760   4.333613   3.784798   2.552120
    24  H   14.828888   2.508549   3.758460   3.099574   3.783785
    25  H   16.542082   3.096567   3.784626   2.558485   3.043754
    26  H   14.079161   3.242751   2.531255   3.764296   3.041234
    27  H   14.094926   3.869105   3.764329   4.329335   2.462800
    28  H   12.775957   3.044403   4.036923   4.341174   4.421738
    29  H   12.752981   2.205834   2.920710   3.786012   4.769334
    30  H   11.589769   4.502697   4.407623   5.722152   5.273725
    31  H   11.605247   4.965530   5.216714   6.105226   4.973598
    32  H   10.260728   5.044183   5.976615   6.626154   6.693276
    33  H   10.241077   4.594792   5.288004   6.279225   6.919547
    34  H    9.083646   6.567046   6.746055   8.031860   7.712962
    35  H    9.094753   6.891922   7.304833   8.311006   7.522306
    36  H    7.729582   7.397506   8.260723   9.063505   9.122415
    37  H    7.715316   7.099116   7.772919   8.810946   9.280556
    38  H    6.604922   8.884465   9.193829  10.451844  10.207179
    39  H    6.611060   9.129291   9.616688  10.671476  10.073929
    40  H    5.217407   9.848917  10.664593  11.549258  11.604457
    41  H    5.209016   9.624552  10.286240  11.348442  11.720616
    42  H    4.206791  11.300285  11.682459  12.920154  12.724458
    43  H    4.208895  11.496112  12.022368  13.101662  12.624987
    44  H    2.778461  12.340120  13.122728  14.057677  14.110727
    45  H    2.775027  12.159317  12.813040  13.889929  14.200198
    46  H    2.174073  13.768201  14.196203  15.419032  15.258767
    47  H    2.174361  13.930541  14.479266  15.572958  15.179282
    48  H    1.114418  15.787758  16.375672  17.486440  17.406085
    49  H    1.113999  14.886555  15.644620  16.613833  16.663607
    50  H    1.114013  14.735526  15.383405  16.470367  16.736813
                   21         22         23         24         25
    21  H    0.000000
    22  H    1.796007   0.000000
    23  H    3.783456   3.126851   0.000000
    24  H    4.339978   3.732599   1.803285   0.000000
    25  H    3.723612   2.465649   1.798952   1.783267   0.000000
    26  H    2.457649   3.715277   3.761255   3.871509   4.328805
    27  H    3.051253   3.719167   2.524556   3.232589   3.760215
    28  H    4.767983   4.967341   2.942492   2.199540   3.784763
    29  H    4.408919   4.968564   4.063926   3.078799   4.363071
    30  H    4.964332   6.122594   5.204661   4.968966   6.103796
    31  H    5.295556   6.129587   4.392120   4.477890   5.708414
    32  H    6.921113   7.416251   5.319365   4.596290   6.285053
    33  H    6.671404   7.412389   6.010390   5.080974   6.650304
    34  H    7.505403   8.624405   7.291842   6.894275   8.307537
    35  H    7.739455   8.637011   6.740924   6.548562   8.023561
    36  H    9.284931   9.927168   7.816822   7.110554   8.826302
    37  H    9.091120   9.917460   8.298265   7.433220   9.087768
    38  H   10.049390  11.147851   9.607305   9.131919  10.667827
    39  H   10.235109  11.165187   9.202165   8.876187  10.452109
    40  H   11.726423  12.454344  10.342620   9.645848  11.373343
    41  H   11.565023  12.439702  10.705852   9.883690  11.573618
    42  H   12.594793  13.681049  12.020163  11.501156  13.100341
    43  H   12.750434  13.700828  11.703640  11.301766  12.928708
    44  H   14.205264  14.989034  12.879055  12.188348  13.922258
    45  H   14.066169  14.971700  13.168240  12.374806  14.082986
    46  H   15.146591  16.224859  14.486749  13.939958  15.576275
    47  H   15.279534  16.244195  14.227477  13.777193  15.433827
    48  H   17.391703  18.360952  16.416679  15.810075  17.507502
    49  H   16.738804  17.562357  15.454381  14.768817  16.506633
    50  H   16.617960  17.545222  15.694678  14.922082  16.641122
                   26         27         28         29         30
    26  H    0.000000
    27  H    1.792604   0.000000
    28  H    3.106109   2.538006   0.000000
    29  H    2.527410   3.105540   1.802766   0.000000
    30  H    2.510054   3.074140   3.089204   2.513682   0.000000
    31  H    3.100856   2.513543   2.506409   3.089017   1.798565
    32  H    4.734531   4.389366   2.529244   3.092133   3.100836
    33  H    4.369973   4.732387   3.112068   2.522634   2.522817
    34  H    5.052735   5.352495   4.733420   4.379780   2.542728
    35  H    5.382301   5.063730   4.375929   4.733983   3.128278
    36  H    6.943446   6.719341   5.082057   5.373539   4.753645
    37  H    6.691367   6.939630   5.395471   5.067027   4.389902
    38  H    7.597531   7.801081   6.947673   6.708403   5.087560
    39  H    7.830422   7.616145   6.712857   6.948200   5.414715
    40  H    9.327308   9.168401   7.635052   7.822360   6.969261
    41  H    9.132950   9.322823   7.843950   7.611902   6.718254
    42  H   10.143409  10.299876   9.335288   9.153480   7.633482
    43  H   10.325953  10.167731   9.165366   9.333942   7.862591
    44  H   11.780152  11.660979  10.187453  10.320090   9.355948
    45  H   11.620897  11.776763  10.341728  10.158353   9.164570
    46  H   12.695507  12.824959  11.796559  11.647430  10.185633
    47  H   12.845090  12.722442  11.664294  11.791435  10.361843
    48  H   14.936650  14.948945  13.730934  13.711272  12.434707
    49  H   14.300298  14.207282  12.773984  12.873324  11.843936
    50  H   14.166482  14.299957  12.896034  12.742263  11.690407
                   31         32         33         34         35
    31  H    0.000000
    32  H    2.528715   0.000000
    33  H    3.100749   1.798905   0.000000
    34  H    3.107057   3.101019   2.529861   0.000000
    35  H    2.550278   2.522131   3.101137   1.798968   0.000000
    36  H    4.409901   2.552826   3.109718   3.101210   2.528679
    37  H    4.753036   3.129255   2.544413   2.523566   3.101200
    38  H    5.391794   4.754899   4.402391   2.544849   3.110380
    39  H    5.102765   4.400366   4.754586   3.128776   2.552505
    40  H    6.747388   5.105842   5.394875   4.754979   4.410696
    41  H    6.968508   5.416312   5.089311   4.392247   4.754794
    42  H    7.842646   6.971975   6.731976   5.090805   5.396793
    43  H    7.654432   6.737727   6.969727   5.414315   5.104211
    44  H    9.198910   7.658267   7.844917   6.971033   6.747629
    45  H    9.356387   7.866390   7.635786   6.722985   6.971671
    46  H   10.347638   9.365356   9.182564   7.643003   7.853394
    47  H   10.209237   9.193762   9.359635   7.865816   7.659066
    48  H   12.447290  11.224610  11.208042   9.906853   9.915497
    49  H   11.725662  10.244820  10.378425   9.390889   9.230996
    50  H   11.847177  10.400340  10.219717   9.205262   9.393688
                   36         37         38         39         40
    36  H    0.000000
    37  H    1.798917   0.000000
    38  H    3.101283   2.529689   0.000000
    39  H    2.522790   3.101295   1.798984   0.000000
    40  H    2.553026   3.111110   3.101189   2.528264   0.000000
    41  H    3.128484   2.544908   2.524048   3.101308   1.798954
    42  H    4.755929   4.402477   2.545975   3.112961   3.101440
    43  H    4.401140   4.754378   3.126485   2.551725   2.523625
    44  H    5.105466   5.397098   4.755336   4.409016   2.552444
    45  H    5.415733   5.091395   4.395213   4.755621   3.126782
    46  H    6.977803   6.737501   5.098204   5.404864   4.760057
    47  H    6.741957   6.973419   5.415562   5.106612   4.405364
    48  H    8.706259   8.694704   7.388426   7.392628   6.214055
    49  H    7.692029   7.882595   7.003078   6.776212   5.139013
    50  H    7.900960   7.675336   6.760634   7.004558   5.447790
                   41         42         43         44         45
    41  H    0.000000
    42  H    2.528834   0.000000
    43  H    3.101116   1.798909   0.000000
    44  H    3.113635   3.101379   2.527883   0.000000
    45  H    2.546492   2.525064   3.101537   1.798857   0.000000
    46  H    4.406441   2.552242   3.119796   3.103078   2.529676
    47  H    4.757900   3.127351   2.554901   2.527128   3.102966
    48  H    6.207834   4.898210   4.899011   3.801496   3.799468
    49  H    5.434728   4.783115   4.434849   2.586576   3.147073
    50  H    5.130436   4.428034   4.783434   3.153889   2.583945
                   46         47         48         49         50
    46  H    0.000000
    47  H    1.798889   0.000000
    48  H    2.519174   2.518700   0.000000
    49  H    3.112185   2.539154   1.799408   0.000000
    50  H    2.537968   3.112393   1.799357   1.802254   0.000000
 Stoichiometry    C15H34N(1+)
 Framework group  C1[X(C15H34N)]
 Deg. of freedom   144
 Full point group                 C1      NOp   1
 Largest Abelian subgroup         C1      NOp   1
 Largest concise Abelian subgroup C1      NOp   1
                         Standard orientation:                         
 ---------------------------------------------------------------------
 Center     Atomic      Atomic             Coordinates (Angstroms)
 Number     Number       Type             X           Y           Z
 ---------------------------------------------------------------------
      1          7           0        6.109716    0.078769   -0.008407
      2          6           0        6.240610    1.008581   -1.202652
      3          6           0        7.239895   -0.939711   -0.069471
      4          6           0        6.261795    0.883082    1.271470
      5          6           0        4.790200   -0.687443   -0.035574
      6          6           0        3.545071    0.216628    0.011073
      7          6           0        2.250176   -0.616723   -0.007942
      8          6           0        0.993143    0.268542    0.022170
      9          6           0       -0.298305   -0.565604    0.009059
     10          6           0       -1.555282    0.319582    0.022834
     11          6           0       -2.846548   -0.514868    0.013887
     12          6           0       -4.103615    0.370312    0.012667
     13          6           0       -5.394830   -0.464190    0.006710
     14          6           0       -6.651738    0.420943   -0.005658
     15          6           0       -7.942790   -0.413013   -0.009152
     16          6           0       -9.195043    0.473653   -0.027134
     17          1           0        5.499028    1.836224   -1.169126
     18          1           0        6.103019    0.454795   -2.158894
     19          1           0        7.246490    1.485831   -1.228117
     20          1           0        7.199755   -1.638917    0.796471
     21          1           0        7.185292   -1.547235   -1.001295
     22          1           0        8.236103   -0.442343   -0.052269
     23          1           0        6.142121    0.234852    2.168957
     24          1           0        5.519368    1.708047    1.336064
     25          1           0        7.267810    1.357462    1.327056
     26          1           0        4.739511   -1.309430   -0.960726
     27          1           0        4.749742   -1.390537    0.830013
     28          1           0        3.539363    0.837746    0.935901
     29          1           0        3.523070    0.903943   -0.865575
     30          1           0        2.230377   -1.251025   -0.926027
     31          1           0        2.238057   -1.303417    0.871759
     32          1           0        1.011059    0.906686    0.937501
     33          1           0        1.000878    0.950949   -0.860831
     34          1           0       -0.311917   -1.211259   -0.901076
     35          1           0       -0.311316   -1.240610    0.897653
     36          1           0       -1.541004    0.968690    0.930500
     37          1           0       -1.543204    0.991295   -0.868274
     38          1           0       -2.856415   -1.170735   -0.888979
     39          1           0       -2.863068   -1.179842    0.909969
     40          1           0       -4.093263    1.028942    0.913519
     41          1           0       -4.087719    1.032603   -0.885422
     42          1           0       -5.402028   -1.127852   -0.890449
     43          1           0       -5.414123   -1.121403    0.908408
     44          1           0       -6.644950    1.086519    0.890073
     45          1           0       -6.633728    1.076355   -0.908720
     46          1           0       -7.953820   -1.081557   -0.903079
     47          1           0       -7.968399   -1.066345    0.895687
     48          1           0      -10.122415   -0.144333   -0.028412
     49          1           0       -9.230944    1.136491    0.867489
     50          1           0       -9.217184    1.119396   -0.934631
 ---------------------------------------------------------------------
 Rotational constants (GHZ):      2.7585791      0.0749020      0.0745133
 Standard basis: 6-311++G(d,p) (5D, 7F)
 There are   606 symmetry adapted cartesian basis functions of A   symmetry.
 There are   590 symmetry adapted basis functions of A   symmetry.
   590 basis functions,   882 primitive gaussians,   606 cartesian basis functions
    65 alpha electrons       65 beta electrons
       nuclear repulsion energy      1063.9298506981 Hartrees.
 NAtoms=   50 NActive=   50 NUniq=   50 SFac= 1.00D+00 NAtFMM=   60 NAOKFM=F Big=F
 Integral buffers will be    131072 words long.
 Raffenetti 2 integral format.
 Two-electron integral symmetry is turned on.
 One-electron integrals computed using PRISM.
 NBasis=   590 RedAO= T EigKep=  2.70D-06  NBF=   590
 NBsUse=   589 1.00D-06 EigRej=  5.00D-07 NBFU=   589
 ExpMin= 3.60D-02 ExpMax= 6.29D+03 ExpMxC= 9.49D+02 IAcc=3 IRadAn=         5 AccDes= 0.00D+00
 Harris functional with IExCor=  402 and IRadAn=       5 diagonalized for initial guess.
 HarFok:  IExCor=  402 AccDes= 0.00D+00 IRadAn=         5 IDoV= 1 UseB2=F ITyADJ=14
 ICtDFT=  3500011 ScaDFX=  1.000000  1.000000  1.000000  1.000000
 FoFCou: FMM=F IPFlag=           0 FMFlag=      100000 FMFlg1=           0
         NFxFlg=           0 DoJE=T BraDBF=F KetDBF=T FulRan=T
         wScrn=  0.000000 ICntrl=     500 IOpCl=  0 I1Cent=   200000004 NGrid=           0
         NMat0=    1 NMatS0=      1 NMatT0=    0 NMatD0=    1 NMtDS0=    0 NMtDT0=    0
 Petite list used in FoFCou.
 Keep R1 ints in memory in canonical form, NReq=15311137623.
 Requested convergence on RMS density matrix=1.00D-08 within 128 cycles.
 Requested convergence on MAX density matrix=1.00D-06.
 Requested convergence on             energy=1.00D-06.
 No special actions if energy rises.
 SCF Done:  E(RB3LYP) =  -646.782069118     A.U. after   12 cycles
            NFock= 12  Conv=0.39D-08     -V/T= 2.0068

 **********************************************************************

            Population analysis using the SCF density.

 **********************************************************************

 Orbital symmetries:
       Occupied  (A) (A) (A) (A) (A) (A) (A) (A) (A) (A) (A) (A)
                 (A) (A) (A) (A) (A) (A) (A) (A) (A) (A) (A) (A)
                 (A) (A) (A) (A) (A) (A) (A) (A) (A) (A) (A) (A)
                 (A) (A) (A) (A) (A) (A) (A) (A) (A) (A) (A) (A)
                 (A) (A) (A) (A) (A) (A) (A) (A) (A) (A) (A) (A)
                 (A) (A) (A) (A) (A)
       Virtual   (A) (A) (A) (A) (A) (A) (A) (A) (A) (A) (A) (A)
                 (A) (A) (A) (A) (A) (A) (A) (A) (A) (A) (A) (A)
                 (A) (A) (A) (A) (A) (A) (A) (A) (A) (A) (A) (A)
                 (A) (A) (A) (A) (A) (A) (A) (A) (A) (A) (A) (A)
                 (A) (A) (A) (A) (A) (A) (A) (A) (A) (A) (A) (A)
                 (A) (A) (A) (A) (A) (A) (A) (A) (A) (A) (A) (A)
                 (A) (A) (A) (A) (A) (A) (A) (A) (A) (A) (A) (A)
                 (A) (A) (A) (A) (A) (A) (A) (A) (A) (A) (A) (A)
                 (A) (A) (A) (A) (A) (A) (A) (A) (A) (A) (A) (A)
                 (A) (A) (A) (A) (A) (A) (A) (A) (A) (A) (A) (A)
                 (A) (A) (A) (A) (A) (A) (A) (A) (A) (A) (A) (A)
                 (A) (A) (A) (A) (A) (A) (A) (A) (A) (A) (A) (A)
                 (A) (A) (A) (A) (A) (A) (A) (A) (A) (A) (A) (A)
                 (A) (A) (A) (A) (A) (A) (A) (A) (A) (A) (A) (A)
                 (A) (A) (A) (A) (A) (A) (A) (A) (A) (A) (A) (A)
                 (A) (A) (A) (A) (A) (A) (A) (A) (A) (A) (A) (A)
                 (A) (A) (A) (A) (A) (A) (A) (A) (A) (A) (A) (A)
                 (A) (A) (A) (A) (A) (A) (A) (A) (A) (A) (A) (A)
                 (A) (A) (A) (A) (A) (A) (A) (A) (A) (A) (A) (A)
                 (A) (A) (A) (A) (A) (A) (A) (A) (A) (A) (A) (A)
                 (A) (A) (A) (A) (A) (A) (A) (A) (A) (A) (A) (A)
                 (A) (A) (A) (A) (A) (A) (A) (A) (A) (A) (A) (A)
                 (A) (A) (A) (A) (A) (A) (A) (A) (A) (A) (A) (A)
                 (A) (A) (A) (A) (A) (A) (A) (A) (A) (A) (A) (A)
                 (A) (A) (A) (A) (A) (A) (A) (A) (A) (A) (A) (A)
                 (A) (A) (A) (A) (A) (A) (A) (A) (A) (A) (A) (A)
                 (A) (A) (A) (A) (A) (A) (A) (A) (A) (A) (A) (A)
                 (A) (A) (A) (A) (A) (A) (A) (A) (A) (A) (A) (A)
                 (A) (A) (A) (A) (A) (A) (A) (A) (A) (A) (A) (A)
                 (A) (A) (A) (A) (A) (A) (A) (A) (A) (A) (A) (A)
                 (A) (A) (A) (A) (A) (A) (A) (A) (A) (A) (A) (A)
                 (A) (A) (A) (A) (A) (A) (A) (A) (A) (A) (A) (A)
                 (A) (A) (A) (A) (A) (A) (A) (A) (A) (A) (A) (A)
                 (A) (A) (A) (A) (A) (A) (A) (A) (A) (A) (A) (A)
                 (A) (A) (A) (A) (A) (A) (A) (A) (A) (A) (A) (A)
                 (A) (A) (A) (A) (A) (A) (A) (A) (A) (A) (A) (A)
                 (A) (A) (A) (A) (A) (A) (A) (A) (A) (A) (A) (A)
                 (A) (A) (A) (A) (A) (A) (A) (A) (A) (A) (A) (A)
                 (A) (A) (A) (A) (A) (A) (A) (A) (A) (A) (A) (A)
                 (A) (A) (A) (A) (A) (A) (A) (A) (A) (A) (A) (A)
                 (A) (A) (A) (A) (A) (A) (A) (A) (A) (A) (A) (A)
                 (A) (A) (A) (A) (A) (A) (A) (A) (A) (A) (A) (A)
                 (A) (A) (A) (A) (A) (A) (A) (A) (A) (A) (A) (A)
                 (A) (A) (A) (A) (A) (A) (A) (A)
 The electronic state is 1-A.
 Alpha  occ. eigenvalues --  -14.61674 -10.39115 -10.39110 -10.39109 -10.38852
 Alpha  occ. eigenvalues --  -10.32359 -10.29520 -10.27209 -10.25425 -10.24134
 Alpha  occ. eigenvalues --  -10.23116 -10.22341 -10.21719 -10.21251 -10.21079
 Alpha  occ. eigenvalues --  -10.20179  -1.17563  -0.94954  -0.90527  -0.90497
 Alpha  occ. eigenvalues --   -0.89588  -0.86720  -0.84659  -0.82283  -0.79622
 Alpha  occ. eigenvalues --   -0.77037  -0.74169  -0.71195  -0.68765  -0.68655
 Alpha  occ. eigenvalues --   -0.67355  -0.66767  -0.65069  -0.62995  -0.62560
 Alpha  occ. eigenvalues --   -0.61670  -0.59745  -0.58625  -0.56993  -0.56603
 Alpha  occ. eigenvalues --   -0.56335  -0.56119  -0.56058  -0.54301  -0.54122
 Alpha  occ. eigenvalues --   -0.52271  -0.51772  -0.50255  -0.49175  -0.48031
 Alpha  occ. eigenvalues --   -0.47822  -0.45883  -0.45752  -0.45600  -0.43528
 Alpha  occ. eigenvalues --   -0.43450  -0.41424  -0.41261  -0.40635  -0.39585
 Alpha  occ. eigenvalues --   -0.39166  -0.38050  -0.37547  -0.36905  -0.35229
 Alpha virt. eigenvalues --   -0.14719  -0.12163  -0.11610  -0.11408  -0.11139
 Alpha virt. eigenvalues --   -0.10310  -0.10153  -0.09222  -0.08340  -0.08327
 Alpha virt. eigenvalues --   -0.06787  -0.06420  -0.05794  -0.05777  -0.04905
 Alpha virt. eigenvalues --   -0.04465  -0.04388  -0.04344  -0.04021  -0.03779
 Alpha virt. eigenvalues --   -0.03605  -0.03234  -0.03016  -0.02231  -0.02093
 Alpha virt. eigenvalues --   -0.01860  -0.01353  -0.01308  -0.01183  -0.01002
 Alpha virt. eigenvalues --   -0.00726  -0.00345  -0.00316   0.00024   0.00400
 Alpha virt. eigenvalues --    0.00676   0.00968   0.01043   0.01102   0.01814
 Alpha virt. eigenvalues --    0.01862   0.02166   0.02228   0.02928   0.03101
 Alpha virt. eigenvalues --    0.03157   0.03466   0.03473   0.03515   0.04039
 Alpha virt. eigenvalues --    0.04374   0.04720   0.04950   0.04978   0.05412
 Alpha virt. eigenvalues --    0.05479   0.05645   0.05704   0.05889   0.06168
 Alpha virt. eigenvalues --    0.06218   0.06751   0.06799   0.07117   0.07153
 Alpha virt. eigenvalues --    0.07337   0.07602   0.07731   0.08126   0.08265
 Alpha virt. eigenvalues --    0.08531   0.08693   0.08856   0.08992   0.09072
 Alpha virt. eigenvalues --    0.09542   0.09788   0.09885   0.10478   0.10668
 Alpha virt. eigenvalues --    0.10689   0.10791   0.10941   0.11267   0.11392
 Alpha virt. eigenvalues --    0.11590   0.11746   0.12371   0.12633   0.12722
 Alpha virt. eigenvalues --    0.13072   0.13227   0.13383   0.13548   0.13889
 Alpha virt. eigenvalues --    0.14219   0.14419   0.14913   0.15085   0.15414
 Alpha virt. eigenvalues --    0.15653   0.15852   0.16575   0.16623   0.16951
 Alpha virt. eigenvalues --    0.17149   0.17362   0.18290   0.18471   0.18677
 Alpha virt. eigenvalues --    0.18924   0.19063   0.19092   0.19426   0.19681
 Alpha virt. eigenvalues --    0.19861   0.20152   0.20690   0.21190   0.21639
 Alpha virt. eigenvalues --    0.21807   0.21824   0.22747   0.23605   0.23708
 Alpha virt. eigenvalues --    0.23917   0.24932   0.25126   0.26136   0.26278
 Alpha virt. eigenvalues --    0.26615   0.26912   0.27514   0.27887   0.28236
 Alpha virt. eigenvalues --    0.28289   0.29039   0.29144   0.29763   0.30373
 Alpha virt. eigenvalues --    0.31218   0.31378   0.31852   0.32322   0.33004
 Alpha virt. eigenvalues --    0.33331   0.34420   0.34500   0.35663   0.36016
 Alpha virt. eigenvalues --    0.36796   0.38139   0.38488   0.39116   0.40175
 Alpha virt. eigenvalues --    0.41098   0.41591   0.42253   0.42925   0.43405
 Alpha virt. eigenvalues --    0.43555   0.44214   0.44257   0.44998   0.45241
 Alpha virt. eigenvalues --    0.45793   0.46919   0.47488   0.49033   0.49345
 Alpha virt. eigenvalues --    0.49412   0.49432   0.50547   0.50768   0.51444
 Alpha virt. eigenvalues --    0.51487   0.52552   0.53122   0.53530   0.53922
 Alpha virt. eigenvalues --    0.55482   0.55983   0.56630   0.56886   0.58001
 Alpha virt. eigenvalues --    0.58605   0.58920   0.59282   0.59778   0.60172
 Alpha virt. eigenvalues --    0.60211   0.61081   0.61338   0.61393   0.61614
 Alpha virt. eigenvalues --    0.62153   0.62328   0.62735   0.63105   0.63416
 Alpha virt. eigenvalues --    0.63729   0.64223   0.64243   0.64748   0.64911
 Alpha virt. eigenvalues --    0.65289   0.65917   0.66182   0.67154   0.67173
 Alpha virt. eigenvalues --    0.67463   0.68021   0.68267   0.68729   0.69307
 Alpha virt. eigenvalues --    0.69731   0.69891   0.70476   0.70974   0.71541
 Alpha virt. eigenvalues --    0.72260   0.72439   0.72690   0.75274   0.75839
 Alpha virt. eigenvalues --    0.77149   0.78438   0.79505   0.80378   0.81786
 Alpha virt. eigenvalues --    0.83689   0.87020   0.87527   0.87816   0.89592
 Alpha virt. eigenvalues --    0.90482   0.91725   0.92775   0.93909   0.95177
 Alpha virt. eigenvalues --    0.95685   0.96585   0.97118   0.97545   0.98935
 Alpha virt. eigenvalues --    0.99386   1.00076   1.00835   1.03805   1.06158
 Alpha virt. eigenvalues --    1.08963   1.10674   1.12236   1.13601   1.15276
 Alpha virt. eigenvalues --    1.17015   1.17406   1.18548   1.20019   1.20883
 Alpha virt. eigenvalues --    1.21811   1.21978   1.22595   1.23417   1.24726
 Alpha virt. eigenvalues --    1.27048   1.28140   1.29488   1.29604   1.30037
 Alpha virt. eigenvalues --    1.32411   1.32893   1.34848   1.35629   1.37758
 Alpha virt. eigenvalues --    1.38546   1.39814   1.39931   1.40946   1.41435
 Alpha virt. eigenvalues --    1.42734   1.42919   1.43558   1.44595   1.44850
 Alpha virt. eigenvalues --    1.45164   1.46611   1.46775   1.48413   1.48830
 Alpha virt. eigenvalues --    1.49882   1.50391   1.50500   1.50698   1.51296
 Alpha virt. eigenvalues --    1.51654   1.53173   1.53349   1.53658   1.54107
 Alpha virt. eigenvalues --    1.54204   1.54840   1.55681   1.55941   1.56362
 Alpha virt. eigenvalues --    1.56893   1.57701   1.57847   1.58473   1.58851
 Alpha virt. eigenvalues --    1.58976   1.60391   1.60695   1.61495   1.61760
 Alpha virt. eigenvalues --    1.62593   1.63361   1.63626   1.64296   1.64873
 Alpha virt. eigenvalues --    1.65255   1.65303   1.66427   1.67467   1.67682
 Alpha virt. eigenvalues --    1.67723   1.68150   1.68514   1.70475   1.72024
 Alpha virt. eigenvalues --    1.74238   1.74899   1.75718   1.76931   1.77760
 Alpha virt. eigenvalues --    1.78961   1.79672   1.79689   1.80819   1.81860
 Alpha virt. eigenvalues --    1.83449   1.83680   1.84509   1.86226   1.86285
 Alpha virt. eigenvalues --    1.87566   1.88571   1.88717   1.93682   1.95160
 Alpha virt. eigenvalues --    1.95282   1.97256   1.98024   1.98146   1.98903
 Alpha virt. eigenvalues --    2.00807   2.02332   2.02507   2.02638   2.05211
 Alpha virt. eigenvalues --    2.07640   2.07964   2.08943   2.10105   2.11045
 Alpha virt. eigenvalues --    2.12235   2.13478   2.14453   2.14906   2.15476
 Alpha virt. eigenvalues --    2.16738   2.17356   2.19166   2.19456   2.20593
 Alpha virt. eigenvalues --    2.21113   2.22680   2.22791   2.24866   2.24938
 Alpha virt. eigenvalues --    2.25705   2.26169   2.26362   2.26960   2.27841
 Alpha virt. eigenvalues --    2.28716   2.29154   2.29158   2.29849   2.30748
 Alpha virt. eigenvalues --    2.31286   2.31578   2.33928   2.34654   2.35405
 Alpha virt. eigenvalues --    2.36045   2.37056   2.38313   2.39034   2.40382
 Alpha virt. eigenvalues --    2.40594   2.40995   2.42546   2.42664   2.43384
 Alpha virt. eigenvalues --    2.44747   2.45870   2.45939   2.47147   2.48100
 Alpha virt. eigenvalues --    2.48270   2.48929   2.49667   2.50413   2.51099
 Alpha virt. eigenvalues --    2.52692   2.52876   2.53194   2.53689   2.55547
 Alpha virt. eigenvalues --    2.56493   2.57395   2.57757   2.59698   2.60723
 Alpha virt. eigenvalues --    2.61183   2.62698   2.62967   2.63457   2.64272
 Alpha virt. eigenvalues --    2.65027   2.65318   2.65940   2.67940   2.68214
 Alpha virt. eigenvalues --    2.68537   2.69898   2.71691   2.73156   2.73836
 Alpha virt. eigenvalues --    2.74401   2.75276   2.76141   2.78116   2.79396
 Alpha virt. eigenvalues --    2.79887   2.83209   2.84313   2.85796   2.87161
 Alpha virt. eigenvalues --    2.88451   2.88976   2.90017   2.90208   2.91034
 Alpha virt. eigenvalues --    2.92072   2.93749   2.94919   2.97458   2.99880
 Alpha virt. eigenvalues --    3.00715   3.02384   3.02661   3.07093   3.15281
 Alpha virt. eigenvalues --    3.17896   3.23083   3.29610   3.34648   3.36004
 Alpha virt. eigenvalues --    3.36113   3.39205   3.42437   3.42990   3.48718
 Alpha virt. eigenvalues --    3.53114   3.54000   3.54467   3.56438   3.58211
 Alpha virt. eigenvalues --    3.59480   3.59662   3.62926   3.65826   3.68033
 Alpha virt. eigenvalues --    3.69496   3.70277   3.72123   3.72631   3.72985
 Alpha virt. eigenvalues --    3.74571   3.75988   3.79330   3.83593   3.89468
 Alpha virt. eigenvalues --    3.94763   3.97348   3.99696   4.02988   4.07389
 Alpha virt. eigenvalues --    4.12536   4.17890   4.22849   4.26826   4.29384
 Alpha virt. eigenvalues --    4.48519   4.49743   4.52995  23.67579  23.71053
 Alpha virt. eigenvalues --   23.71364  23.71634  23.73591  23.74379  23.76112
 Alpha virt. eigenvalues --   23.77807  23.79057  23.79864  23.80491  23.81216
 Alpha virt. eigenvalues --   23.82346  23.83155  23.88799  35.24472
          Condensed to atoms (all electrons):
               1          2          3          4          5          6
     1  N    6.623365   0.292947   0.279125   0.293870  -0.024541  -0.083572
     2  C    0.292947   5.584586  -0.158635  -0.132403  -0.144515  -0.164158
     3  C    0.279125  -0.158635   5.430873  -0.158252  -0.167180  -0.089069
     4  C    0.293870  -0.132403  -0.158252   5.583033  -0.144455  -0.171016
     5  C   -0.024541  -0.144515  -0.167180  -0.144455   7.423452  -0.744069
     6  C   -0.083572  -0.164158  -0.089069  -0.171016  -0.744069   7.630611
     7  C    0.027118   0.064118   0.001831   0.068249   0.123004  -0.885431
     8  C   -0.084203  -0.110123   0.015509  -0.106362  -0.102938  -0.379248
     9  C    0.012240   0.008116  -0.007669   0.008062  -0.275288   0.233438
    10  C   -0.002936  -0.001544   0.001549  -0.001453   0.106498  -0.375134
    11  C    0.000870   0.000986  -0.000256   0.000980  -0.012862   0.175496
    12  C    0.000011   0.000069   0.000013   0.000065   0.007536  -0.005009
    13  C    0.000008   0.000020  -0.000002   0.000019  -0.000021   0.010134
    14  C    0.000000   0.000001   0.000000   0.000001   0.000099   0.000406
    15  C    0.000000   0.000000   0.000000   0.000000   0.000000   0.000072
    16  C    0.000000   0.000000   0.000000   0.000000   0.000000   0.000001
    17  H   -0.019789   0.385895   0.013198  -0.015918  -0.059515   0.039282
    18  H   -0.003370   0.373160  -0.022587   0.018438   0.015743  -0.023131
    19  H   -0.026200   0.387447  -0.011231  -0.022460   0.011339   0.023486
    20  H   -0.011560   0.016718   0.385019  -0.015798   0.000886  -0.011005
    21  H   -0.011715  -0.016104   0.385481   0.016623   0.001549  -0.012593
    22  H   -0.013554  -0.022525   0.367586  -0.022316   0.026685   0.019539
    23  H   -0.004212   0.018441  -0.023649   0.372739   0.013955  -0.019132
    24  H   -0.019852  -0.015870   0.013157   0.385138  -0.063770   0.038198
    25  H   -0.025422  -0.021938  -0.010161   0.387404   0.013050   0.021014
    26  H    0.007269  -0.014093   0.016046   0.016909   0.344528  -0.074648
    27  H    0.005842   0.017188   0.015300  -0.014789   0.344925  -0.071085
    28  H   -0.010919   0.005579   0.000839  -0.032450  -0.074008   0.485637
    29  H   -0.016798  -0.032421  -0.000802   0.006014  -0.094191   0.503269
    30  H   -0.005058   0.001157  -0.002230  -0.002875   0.013562  -0.074370
    31  H   -0.006022  -0.003137  -0.003484   0.000797  -0.024680  -0.057381
    32  H    0.001453   0.000061   0.000360   0.002440   0.006098  -0.010600
    33  H    0.001575   0.002232   0.000244  -0.000236  -0.004952  -0.019631
    34  H    0.000205   0.000525   0.000054  -0.000494  -0.003303   0.004718
    35  H    0.000218  -0.000482   0.000104   0.000516  -0.001939   0.000652
    36  H   -0.000061   0.000170  -0.000027  -0.000293  -0.000158  -0.000976
    37  H   -0.000053  -0.000277  -0.000010   0.000184   0.001352  -0.000691
    38  H   -0.000005  -0.000008  -0.000002   0.000016   0.000162   0.000015
    39  H   -0.000003   0.000016   0.000000  -0.000006   0.000507   0.000220
    40  H    0.000001  -0.000007   0.000001   0.000007  -0.000007  -0.000212
    41  H    0.000000   0.000007   0.000001  -0.000007   0.000011  -0.000200
    42  H    0.000000   0.000000   0.000000   0.000000  -0.000014   0.000040
    43  H    0.000000   0.000000   0.000000   0.000000  -0.000016   0.000036
    44  H    0.000000   0.000000   0.000000   0.000000   0.000001   0.000000
    45  H    0.000000   0.000000   0.000000   0.000000   0.000001  -0.000001
    46  H    0.000000   0.000000   0.000000   0.000000   0.000000  -0.000001
    47  H    0.000000   0.000000   0.000000   0.000000   0.000000  -0.000001
    48  H    0.000000   0.000000   0.000000   0.000000   0.000000   0.000000
    49  H    0.000000   0.000000   0.000000   0.000000   0.000000   0.000000
    50  H    0.000000   0.000000   0.000000   0.000000   0.000000   0.000000
               7          8          9         10         11         12
     1  N    0.027118  -0.084203   0.012240  -0.002936   0.000870   0.000011
     2  C    0.064118  -0.110123   0.008116  -0.001544   0.000986   0.000069
     3  C    0.001831   0.015509  -0.007669   0.001549  -0.000256   0.000013
     4  C    0.068249  -0.106362   0.008062  -0.001453   0.000980   0.000065
     5  C    0.123004  -0.102938  -0.275288   0.106498  -0.012862   0.007536
     6  C   -0.885431  -0.379248   0.233438  -0.375134   0.175496  -0.005009
     7  C    7.325827  -1.096954  -0.011513   0.261492  -0.273953   0.151432
     8  C   -1.096954   7.932441  -0.696996   0.066297   0.248856  -0.259559
     9  C   -0.011513  -0.696996   7.357590  -0.674669  -0.035950   0.149392
    10  C    0.261492   0.066297  -0.674669   7.349211  -0.719993  -0.019190
    11  C   -0.273953   0.248856  -0.035950  -0.719993   7.173946  -0.798085
    12  C    0.151432  -0.259559   0.149392  -0.019190  -0.798085   6.914780
    13  C   -0.014583   0.114581  -0.329309  -0.029349   0.037432  -0.664270
    14  C    0.006089  -0.009262   0.045485  -0.226392  -0.129259   0.085338
    15  C    0.000016   0.002363  -0.008885   0.001320  -0.143985  -0.105743
    16  C    0.000019   0.000036   0.000166  -0.004014   0.001846  -0.067290
    17  H    0.006124  -0.004196   0.000718  -0.000179   0.000015  -0.000013
    18  H   -0.000005   0.000327   0.000076   0.000054  -0.000072  -0.000001
    19  H   -0.000034  -0.001519   0.000161  -0.000028   0.000023   0.000002
    20  H   -0.001959   0.000843  -0.000078   0.000035  -0.000015   0.000000
    21  H   -0.001263   0.000871  -0.000084   0.000041  -0.000016   0.000000
    22  H   -0.003721   0.002027  -0.000213   0.000025  -0.000005   0.000000
    23  H   -0.000789   0.000730   0.000102   0.000004  -0.000067  -0.000002
    24  H    0.010913  -0.003906   0.001075  -0.000259   0.000001  -0.000021
    25  H   -0.001030  -0.001649   0.000089  -0.000005   0.000024   0.000003
    26  H    0.023911  -0.016171   0.002702  -0.000977   0.000543  -0.000051
    27  H    0.022554  -0.017140   0.003151  -0.001015   0.000519  -0.000045
    28  H   -0.096726   0.072800   0.002947  -0.003793  -0.002073   0.000319
    29  H   -0.103047   0.086580   0.006398  -0.005395  -0.001899  -0.000060
    30  H    0.458952  -0.079765   0.011226   0.009969  -0.005132   0.000635
    31  H    0.450003  -0.057959   0.030458   0.001651  -0.003936  -0.000800
    32  H   -0.059464   0.451636  -0.109545   0.027018   0.005764  -0.003415
    33  H   -0.069316   0.476646  -0.092514   0.021252   0.005852  -0.008042
    34  H    0.002122  -0.079884   0.480413  -0.102143   0.006159   0.007720
    35  H   -0.006810  -0.070730   0.476943  -0.091650   0.009516   0.001286
    36  H    0.001222  -0.004039  -0.074047   0.469345  -0.102379   0.018019
    37  H    0.005447  -0.011365  -0.086208   0.475617  -0.102432   0.023207
    38  H   -0.001959   0.005009  -0.012084  -0.081624   0.484247  -0.102366
    39  H    0.002244   0.001269  -0.015781  -0.092830   0.472958  -0.086530
    40  H   -0.000060  -0.002733   0.004928   0.003977  -0.060664   0.480983
    41  H    0.000850  -0.004078   0.007905  -0.013532  -0.070755   0.488505
    42  H   -0.000228   0.000723  -0.003414   0.009655  -0.008193  -0.070551
    43  H   -0.000128   0.000512  -0.001461   0.005160  -0.010691  -0.075233
    44  H    0.000038   0.000062   0.000159  -0.000847  -0.001679  -0.008002
    45  H    0.000039   0.000015   0.000584  -0.001410  -0.000297  -0.012470
    46  H   -0.000003  -0.000040   0.000160  -0.000330   0.004239   0.000289
    47  H   -0.000003  -0.000047   0.000222  -0.000295   0.005214   0.000728
    48  H    0.000000   0.000005  -0.000019  -0.000021  -0.000796   0.002461
    49  H   -0.000001   0.000003  -0.000036   0.000212  -0.000793   0.000251
    50  H   -0.000001   0.000003  -0.000033   0.000228  -0.000641   0.000793
              13         14         15         16         17         18
     1  N    0.000008   0.000000   0.000000   0.000000  -0.019789  -0.003370
     2  C    0.000020   0.000001   0.000000   0.000000   0.385895   0.373160
     3  C   -0.000002   0.000000   0.000000   0.000000   0.013198  -0.022587
     4  C    0.000019   0.000001   0.000000   0.000000  -0.015918   0.018438
     5  C   -0.000021   0.000099   0.000000   0.000000  -0.059515   0.015743
     6  C    0.010134   0.000406   0.000072   0.000001   0.039282  -0.023131
     7  C   -0.014583   0.006089   0.000016   0.000019   0.006124  -0.000005
     8  C    0.114581  -0.009262   0.002363   0.000036  -0.004196   0.000327
     9  C   -0.329309   0.045485  -0.008885   0.000166   0.000718   0.000076
    10  C   -0.029349  -0.226392   0.001320  -0.004014  -0.000179   0.000054
[...]
   24 Atom     -0.926442     -0.012543      0.014468      0.000095
   25 Atom     -0.925033      0.017408      0.007338      0.000463
   26 Atom     -0.937899     -0.000354     -0.011150     -0.015025
   27 Atom     -0.937899     -0.000353     -0.011149      0.015026
   28 Atom     -0.976488     -0.000452      0.010710      0.014569
   29 Atom     -0.976487     -0.000453      0.010710     -0.014569
   30 Atom     -1.008529     -0.000428     -0.010780     -0.014325
   31 Atom     -1.008528     -0.000427     -0.010779      0.014325
   32 Atom     -1.031424     -0.000097      0.010712      0.014227
   33 Atom     -1.031424     -0.000097      0.010712     -0.014226
   34 Atom     -1.048923     -0.000318     -0.010710     -0.014189
   35 Atom     -1.048923     -0.000318     -0.010711      0.014189
   36 Atom     -1.061785      0.000012      0.010694      0.014161
   37 Atom     -1.061785      0.000012      0.010695     -0.014160
   38 Atom     -1.071920     -0.000257     -0.010690     -0.014150
   39 Atom     -1.071920     -0.000257     -0.010691      0.014149
   40 Atom     -1.079695      0.000081      0.010685      0.014139
   41 Atom     -1.079695      0.000081      0.010687     -0.014138
   42 Atom     -1.085883     -0.000229     -0.010679     -0.014135
   43 Atom     -1.085883     -0.000230     -0.010681      0.014134
   44 Atom     -1.090783      0.000116      0.010688      0.014127
   45 Atom     -1.090783      0.000117      0.010690     -0.014125
   46 Atom     -1.095041     -0.000303     -0.010724     -0.014177
   47 Atom     -1.095041     -0.000304     -0.010726      0.014176
   48 Atom     -1.092614     -0.014961     -0.010028     -0.000001
   49 Atom     -1.092817     -0.000764      0.010545      0.014429
   50 Atom     -1.092816     -0.000763      0.010547     -0.014428
 -----------------------------------------------------------------
 -----------------------------------------------------
    Center         ---- Electric Field Gradient ----
                     XX            YY            ZZ
 -----------------------------------------------------
    1 Atom     -812.777534   -812.822459   -812.837013
    2 Atom     -500.300984   -500.496368   -500.739329
    3 Atom     -500.661670   -500.657961   -500.325049
    4 Atom     -500.300982   -500.496446   -500.739255
    5 Atom     -500.963271   -500.645072   -500.435297
    6 Atom     -500.378653   -500.322452   -500.233022
    7 Atom     -500.405701   -500.347866   -500.265526
    8 Atom     -500.371033   -500.351642   -500.277617
    9 Atom     -500.361822   -500.344338   -500.277406
   10 Atom     -500.355985   -500.348617   -500.283261
   11 Atom     -500.353904   -500.345866   -500.283536
   12 Atom     -500.352972   -500.349832   -500.287628
   13 Atom     -500.352377   -500.348396   -500.288281
   14 Atom     -500.360149   -500.362186   -500.302132
   15 Atom     -500.310898   -500.288427   -500.227949
   16 Atom     -500.302507   -500.289442   -500.262167
   17 Atom       -1.879934     -1.927508     -1.690325
   18 Atom       -1.676101     -1.834745     -1.970762
   19 Atom       -2.062719     -1.735458     -1.687040
   20 Atom       -1.688813     -1.817098     -1.977767
   21 Atom       -1.688808     -1.817133     -1.977743
   22 Atom       -2.038204     -1.780124     -1.667735
   23 Atom       -1.676103     -1.834695     -1.970811
   24 Atom       -1.879934     -1.927508     -1.690327
   25 Atom       -2.062719     -1.735460     -1.687037
   26 Atom       -1.715363     -1.844165     -1.987425
   27 Atom       -1.715366     -1.844152     -1.987440
   28 Atom       -1.708140     -1.852490     -1.989841
   29 Atom       -1.708140     -1.852483     -1.989851
   30 Atom       -1.709184     -1.853369     -1.984367
   31 Atom       -1.709179     -1.853370     -1.984355
   32 Atom       -1.710457     -1.857104     -1.986603
   33 Atom       -1.710457     -1.857126     -1.986580
   34 Atom       -1.710587     -1.858408     -1.987297
   35 Atom       -1.710587     -1.858429     -1.987276
   36 Atom       -1.711276     -1.859846     -1.988220
   37 Atom       -1.711277     -1.859877     -1.988189
   38 Atom       -1.711296     -1.860362     -1.988590
   39 Atom       -1.711296     -1.860391     -1.988560
   40 Atom       -1.711574     -1.860910     -1.988922
   41 Atom       -1.711575     -1.860951     -1.988881
   42 Atom       -1.711400     -1.860942     -1.988904
   43 Atom       -1.711400     -1.860982     -1.988863
   44 Atom       -1.711506     -1.860963     -1.988657
   45 Atom       -1.711507     -1.861011     -1.988610
   46 Atom       -1.712142     -1.864081     -1.991573
   47 Atom       -1.712142     -1.864133     -1.991518
   48 Atom       -2.000739     -1.835218     -1.684769
   49 Atom       -1.692293     -1.844652     -1.985460
   50 Atom       -1.692291     -1.844708     -1.985403
 -----------------------------------------------------
 -----------------------------------------------------
    Center         ---- Electric Field Gradient ----
                     XY            XZ            YZ
 -----------------------------------------------------
    1 Atom        0.026029      0.000000      0.000001
    2 Atom       -0.054969      0.068785      0.302184
    3 Atom        0.332266     -0.000025      0.000025
    4 Atom       -0.054974     -0.068772     -0.302214
    5 Atom       -0.325058      0.000018      0.000010
    6 Atom        0.091574      0.000004     -0.000001
    7 Atom       -0.086897      0.000003      0.000002
    8 Atom        0.059525      0.000002     -0.000001
    9 Atom       -0.042192     -0.000001     -0.000002
   10 Atom        0.032310      0.000001     -0.000001
   11 Atom       -0.024676     -0.000002     -0.000003
   12 Atom        0.019209     -0.000001     -0.000002
   13 Atom       -0.015706     -0.000003     -0.000003
   14 Atom        0.012666     -0.000001     -0.000003
   15 Atom       -0.003007     -0.000003     -0.000004
   16 Atom        0.038191      0.000001      0.000000
   17 Atom        0.226425      0.014070     -0.000794
   18 Atom       -0.040615     -0.049686     -0.200043
   19 Atom       -0.154305     -0.006984      0.009670
   20 Atom       -0.017707      0.048626      0.205566
   21 Atom       -0.017698     -0.048608     -0.205580
   22 Atom       -0.172034     -0.000004     -0.000001
   23 Atom       -0.040612      0.049696      0.200025
   24 Atom        0.226423     -0.014101      0.000827
   25 Atom       -0.154302      0.006996     -0.009667
   26 Atom       -0.003684      0.008715     -0.209953
   27 Atom       -0.003675     -0.008726      0.209949
   28 Atom       -0.000093     -0.004335     -0.213211
   29 Atom       -0.000085      0.004324      0.213210
   30 Atom       -0.001108      0.001881     -0.212112
   31 Atom       -0.001099     -0.001893      0.212114
   32 Atom       -0.002427     -0.005878     -0.212367
   33 Atom       -0.002425      0.005875      0.212373
   34 Atom       -0.001494     -0.000361     -0.212610
   35 Atom       -0.001492      0.000358      0.212616
   36 Atom       -0.002332     -0.004658     -0.212710
   37 Atom       -0.002337      0.004663      0.212719
   38 Atom       -0.001857     -0.001614     -0.212828
   39 Atom       -0.001862      0.001620      0.212837
   40 Atom       -0.002396     -0.004214     -0.212859
   41 Atom       -0.002406      0.004227      0.212871
   42 Atom       -0.002136     -0.002369     -0.212887
   43 Atom       -0.002146      0.002382      0.212899
   44 Atom       -0.002153     -0.003657     -0.212795
   45 Atom       -0.002167      0.003674      0.212809
   46 Atom       -0.002062     -0.002454     -0.214025
   47 Atom       -0.002074      0.002469      0.214040
   48 Atom       -0.211196     -0.000023     -0.000016
   49 Atom        0.010122      0.008814     -0.216547
   50 Atom        0.010110     -0.008795      0.216566
 -----------------------------------------------------
 -----------------------------------------------------
    Center         ---- Electric Field Gradient ----
                   ----       Eigenvalues       ----
 -----------------------------------------------------
    1 Atom     -812.837013   -812.834377   -812.765615
    2 Atom     -500.955312   -500.297808   -500.283562
    3 Atom     -500.992087   -500.327544   -500.325049
    4 Atom     -500.955311   -500.297810   -500.283562
    5 Atom     -501.166077   -500.442266   -500.435297
    6 Atom     -500.446341   -500.254764   -500.233022
    7 Atom     -500.468366   -500.285201   -500.265526
    8 Atom     -500.421647   -500.301028   -500.277617
    9 Atom     -500.396168   -500.309992   -500.277406
   10 Atom     -500.384820   -500.319781   -500.283261
   11 Atom     -500.374886   -500.324884   -500.283536
   12 Atom     -500.370675   -500.332129   -500.287628
   13 Atom     -500.366219   -500.334555   -500.288281
   14 Atom     -500.373875   -500.348461   -500.302132
   15 Atom     -500.311293   -500.288031   -500.227949
   16 Atom     -500.334721   -500.262167   -500.257229
   17 Atom       -2.131619     -1.695231     -1.670917
   18 Atom       -2.123215     -1.692115     -1.666278
   19 Atom       -2.124019     -1.693827     -1.667371
   20 Atom       -2.123921     -1.692978     -1.666778
   21 Atom       -2.123925     -1.692980     -1.666779
   22 Atom       -2.124215     -1.694113     -1.667735
   23 Atom       -2.123215     -1.692115     -1.666278
   24 Atom       -2.131619     -1.695232     -1.670918
   25 Atom       -2.124018     -1.693827     -1.667371
   26 Atom       -2.137689     -1.718011     -1.691253
   27 Atom       -2.137691     -1.718013     -1.691255
   28 Atom       -2.145193     -1.708645     -1.696632
   29 Atom       -2.145196     -1.708646     -1.696633
   30 Atom       -2.140864     -1.709502     -1.696554
   31 Atom       -2.140859     -1.709496     -1.696549
   32 Atom       -2.143960     -1.710591     -1.699612
   33 Atom       -2.143959     -1.710592     -1.699612
   34 Atom       -2.145018     -1.710681     -1.700593
   35 Atom       -2.145018     -1.710681     -1.700593
   36 Atom       -2.146277     -1.711302     -1.701763
   37 Atom       -2.146277     -1.711303     -1.701764
   38 Atom       -2.146764     -1.711314     -1.702170
   39 Atom       -2.146764     -1.711313     -1.702170
   40 Atom       -2.147243     -1.711560     -1.702603
   41 Atom       -2.147243     -1.711560     -1.702603
   42 Atom       -2.147240     -1.711387     -1.702619
   43 Atom       -2.147240     -1.711387     -1.702619
   44 Atom       -2.147018     -1.711489     -1.702620
   45 Atom       -2.147018     -1.711489     -1.702620
   46 Atom       -2.151167     -1.712123     -1.704506
   47 Atom       -2.151165     -1.712123     -1.704505
   48 Atom       -2.144811     -1.691145     -1.684769
   49 Atom       -2.143140     -1.693407     -1.685857
   50 Atom       -2.143139     -1.693407     -1.685856
 -----------------------------------------------------
 -----------------------------------------------------
    Center         ---- Electric Field Gradient ----
                       ( tensor representation )
                   3XX-RR        3YY-RR        3ZZ-RR
 -----------------------------------------------------
    1 Atom        0.034801     -0.010124     -0.024678
    2 Atom        0.211243      0.015859     -0.227102
    3 Atom       -0.113444     -0.109734      0.223178
    4 Atom        0.211246      0.015781     -0.227027
    5 Atom       -0.282058      0.036141      0.245917
    6 Atom       -0.067277     -0.011076      0.078353
    7 Atom       -0.066003     -0.008169      0.074172
    8 Atom       -0.037603     -0.018211      0.055814
    9 Atom       -0.033966     -0.016483      0.050450
   10 Atom       -0.026697     -0.019329      0.046026
   11 Atom       -0.026135     -0.018097      0.044232
   12 Atom       -0.022828     -0.019688      0.042516
   13 Atom       -0.022693     -0.018711      0.041404
   14 Atom       -0.018660     -0.020697      0.039357
   15 Atom       -0.035140     -0.012669      0.047809
   16 Atom       -0.017802     -0.004737      0.022538
   17 Atom       -0.047345     -0.094919      0.142264
   18 Atom        0.151102     -0.007543     -0.143559
   19 Atom       -0.234314      0.092948      0.141366
   20 Atom        0.139080      0.010794     -0.149874
   21 Atom        0.139087      0.010762     -0.149849
   22 Atom       -0.209516      0.048563      0.160953
   23 Atom        0.151100     -0.007492     -0.143608
   24 Atom       -0.047345     -0.094919      0.142263
   25 Atom       -0.234314      0.092946      0.141368
   26 Atom        0.133621      0.004820     -0.138441
   27 Atom        0.133620      0.004834     -0.138454
   28 Atom        0.142017     -0.002333     -0.139684
   29 Atom        0.142018     -0.002326     -0.139693
   30 Atom        0.139789     -0.004396     -0.135394
   31 Atom        0.139789     -0.004402     -0.135387
   32 Atom        0.140931     -0.005716     -0.135215
   33 Atom        0.140931     -0.005739     -0.135192
   34 Atom        0.141510     -0.006310     -0.135200
   35 Atom        0.141510     -0.006332     -0.135179
   36 Atom        0.141838     -0.006732     -0.135106
   37 Atom        0.141838     -0.006763     -0.135075
   38 Atom        0.142120     -0.006946     -0.135174
   39 Atom        0.142120     -0.006976     -0.135144
   40 Atom        0.142228     -0.007108     -0.135120
   41 Atom        0.142228     -0.007149     -0.135079
   42 Atom        0.142349     -0.007193     -0.135156
   43 Atom        0.142349     -0.007234     -0.135115
   44 Atom        0.142202     -0.007254     -0.134948
   45 Atom        0.142202     -0.007302     -0.134900
   46 Atom        0.143790     -0.008149     -0.135641
   47 Atom        0.143789     -0.008202     -0.135587
   48 Atom       -0.160497      0.005024      0.155473
   49 Atom        0.148509     -0.003850     -0.144658
   50 Atom        0.148509     -0.003907     -0.144602
 -----------------------------------------------------
 -----------------------------------------------------
    Center         ---- Electric Field Gradient ----
                       ( tensor representation )
                   ----       Eigenvalues       ----
 -----------------------------------------------------
    1 Atom       -0.024678     -0.022042      0.046720
    2 Atom       -0.443085      0.214419      0.228665
    3 Atom       -0.443860      0.220682      0.223178
    4 Atom       -0.443083      0.214418      0.228665
    5 Atom       -0.484863      0.238947      0.245917
    6 Atom       -0.134965      0.056612      0.078353
    7 Atom       -0.128668      0.054496      0.074172
    8 Atom       -0.088216      0.032402      0.055814
    9 Atom       -0.068313      0.017863      0.050450
   10 Atom       -0.055533      0.009506      0.046026
   11 Atom       -0.047117      0.002885      0.044232
   12 Atom       -0.040531     -0.001985      0.042516
   13 Atom       -0.036534     -0.004870      0.041404
   14 Atom       -0.032385     -0.006972      0.039357
   15 Atom       -0.035535     -0.012274      0.047809
   16 Atom       -0.050015      0.022538      0.027477
   17 Atom       -0.299030      0.137358      0.161672
   18 Atom       -0.296012      0.135087      0.160925
   19 Atom       -0.295613      0.134579      0.161035
   20 Atom       -0.296029      0.134914      0.161115
   21 Atom       -0.296030      0.134915      0.161115
   22 Atom       -0.295527      0.134575      0.160953
   23 Atom       -0.296012      0.135087      0.160925
   24 Atom       -0.299030      0.137358      0.161671
   25 Atom       -0.295612      0.134578      0.161034
   26 Atom       -0.288705      0.130974      0.157731
   27 Atom       -0.288705      0.130973      0.157731
   28 Atom       -0.295036      0.141512      0.153524
   29 Atom       -0.295038      0.141512      0.153525
   30 Atom       -0.291891      0.139472      0.152419
   31 Atom       -0.291891      0.139472      0.152419
   32 Atom       -0.292572      0.140796      0.151776
   33 Atom       -0.292571      0.140796      0.151775
   34 Atom       -0.292921      0.141416      0.151504
   35 Atom       -0.292921      0.141416      0.151504
   36 Atom       -0.293163      0.141812      0.151351
   37 Atom       -0.293163      0.141812      0.151351
   38 Atom       -0.293348      0.142102      0.151246
   39 Atom       -0.293348      0.142103      0.151246
   40 Atom       -0.293441      0.142242      0.151199
   41 Atom       -0.293441      0.142242      0.151199
   42 Atom       -0.293491      0.142362      0.151130
   43 Atom       -0.293491      0.142362      0.151130
   44 Atom       -0.293309      0.142220      0.151089
   45 Atom       -0.293309      0.142220      0.151089
   46 Atom       -0.295235      0.143809      0.151426
   47 Atom       -0.295234      0.143808      0.151426
   48 Atom       -0.304569      0.149097      0.155473
   49 Atom       -0.302339      0.147394      0.154945
   50 Atom       -0.302338      0.147394      0.154944
 -----------------------------------------------------

 Test job not archived.
 1|1|UNPC-NP-ALMACH|FOpt|RB3LYP|6-311++G(d,p)|C15H34N1(1+)|HERA|05-Sep-
 2018|0||# RB3LYP/6-311++G** Opt Test prop=EFG||C15NH34||1,1|N,3.716348
 0905,-0.013066803,5.8719341646|C,3.8924001372,1.48223543,5.8877538187|
 C,4.9981466252,-0.6561609874,6.3360352598|C,2.6112096065,-0.3995264724
 ,6.8187667234|C,3.4222935717,-0.5164164006,4.4499261659|C,2.1571041742
 ,0.017523087,3.7882849346|C,2.0052878268,-0.577904129,2.3758538291|C,0
 .7462043956,-0.0759393766,1.658025025|C,0.5825498458,-0.6609384572,0.2
 502659576|C,-0.6752054939,-0.1610986946,-0.4700558457|C,-0.8434769358,
 -0.7431491226,-1.8782773357|C,-2.1010576655,-0.2433764764,-2.598517397
 8|C,-2.271942517,-0.8237654039,-4.007050394|C,-3.5294479506,-0.3237825
 545,-4.7267752339|C,-3.7028817758,-0.9026138118,-6.1357138721|C,-4.961
 8301516,-0.3968678363,-6.8457526695|H,2.9566653146,1.9602942124,5.6110
 612099|H,4.6744711391,1.7524505072,5.1798217864|H,4.1795529063,1.78862
 32772,6.8924935537|H,4.8726963487,-1.7375234944,6.3331676309|H,5.80159
 65878,-0.373149096,5.6581994039|H,5.2231989398,-0.3107705121,7.3439263
 783|H,2.4742882718,-1.4790922254,6.778647124|H,1.693119409,0.104447843
 5,6.5292518842|H,2.8945412145,-0.098754503,7.8262848604|H,4.3047516248
 ,-0.2529889551,3.8634778505|H,3.384710774,-1.6044784174,4.5321206904|H
 ,1.271582821,-0.2414475834,4.3759411096|H,2.1901960301,1.1079658182,3.
 7083372631|H,2.8895229204,-0.3276798344,1.7777643882|H,1.9744983651,-1
 .6718737798,2.4427676352|H,-0.1371425528,-0.3245268059,2.2592909052|H,
 0.7773282776,1.0188862253,1.5947216043|H,1.4669571178,-0.413298805,-0.
 3501400173|H,0.5529990278,-1.7559485144,0.3140513392|H,-1.5591478438,-
 0.408134139,0.1316639699|H,-0.6454146318,0.9342009144,-0.5323369087|H,
 0.0406379149,-0.4963842045,-2.4799458564|H,-0.8729572063,-1.8385099047
 ,-1.816047737|H,-2.984905469,-0.4898763024,-1.996184207|H,-2.071415628
 2,0.852113608,-2.659978276|H,-1.388161513,-0.577324069,-4.6095891501|H
 ,-2.3016498497,-1.9193111772,-3.9457959339|H,-4.4138309021,-0.57000772
 58,-4.1247093258|H,-3.5003819428,0.7719334865,-4.7884582998|H,-2.81981
 81773,-0.6562117785,-6.7377652781|H,-3.7326710516,-1.9973009262,-6.074
 4385688|H,-5.0560557022,-0.8275280207,-7.8461306537|H,-5.8646880017,-0
 .659155045,-6.2853591272|H,-4.9448613159,0.6921859355,-6.9537463772||V
 ersion=EM64W-G09RevD.01|State=1-A|HF=-646.7968053|RMSD=4.778e-009|RMSF
 =3.438e-006|Dipole=5.6442556,0.4896224,8.7564737|Quadrupole=-5.8999498
 ,-42.6951313,48.5950811,4.3795078,58.7261586,4.9121987|PG=C01 [X(C15H3
 4N1)]||@


 Spring appears, and we are once more children.
                                  -- Anonymous
 Job cpu time:       0 days  1 hours  4 minutes 52.0 seconds.
 File lengths (MBytes):  RWF=    155 Int=      0 D2E=      0 Chk=     25 Scr=      1
 Normal termination of Gaussian 09 at Wed Sep 05 10:50:58 2018.
