 Entering Link 1 = C:\G09W\l1.exe PID=     19248.
  
 Copyright (c) 1988,1990,1992,1993,1995,1998,2003,2009,2013,
            Gaussian, Inc.  All Rights Reserved.
  
 This is part of the Gaussian(R) 09 program.  It is based on
 the Gaussian(R) 03 system (copyright 2003, Gaussian, Inc.),
 the Gaussian(R) 98 system (copyright 1998, Gaussian, Inc.),
 the Gaussian(R) 94 system (copyright 1995, Gaussian, Inc.),
 the Gaussian 92(TM) system (copyright 1992, Gaussian, Inc.),
 the Gaussian 90(TM) system (copyright 1990, Gaussian, Inc.),
 the Gaussian 88(TM) system (copyright 1988, Gaussian, Inc.),
 the Gaussian 86(TM) system (copyright 1986, Carnegie Mellon
 University), and the Gaussian 82(TM) system (copyright 1983,
 Carnegie Mellon University). Gaussian is a federally registered
 trademark of Gaussian, Inc.
  
 This software contains proprietary and confidential information,
 including trade secrets, belonging to Gaussian, Inc.
  
 This software is provided under written license and may be
 used, copied, transmitted, or stored only in accord with that
 written license.
  
 The following legend is applicable only to US Government
 contracts under FAR:
  
                    RESTRICTED RIGHTS LEGEND
  
 Use, reproduction and disclosure by the US Government is
 subject to restrictions as set forth in subparagraphs (a)
 and (c) of the Commercial Computer Software - Restricted
 Rights clause in FAR 52.227-19.
  
 Gaussian, Inc.
 340 Quinnipiac St., Bldg. 40, Wallingford CT 06492
  
  
 ---------------------------------------------------------------
 Warning -- This program may not be used in any manner that
 competes with the business of Gaussian, Inc. or will provide
 assistance to any competitor of Gaussian, Inc.  The licensee
 of this program is prohibited from giving any competitor of
 Gaussian, Inc. access to this program.  By using this program,
 the user acknowledges that Gaussian, Inc. is engaged in the
 business of creating and licensing software in the field of
 computational chemistry and represents and warrants to the
 licensee that it is not a competitor of Gaussian, Inc. and that
 it will not use this program in any manner prohibited above.
 ---------------------------------------------------------------
  

 Cite this work as:
 Gaussian 09, Revision D.01,
 M. J. Frisch, G. W. Trucks, H. B. Schlegel, G. E. Scuseria, 
 M. A. Robb, J. R. Cheeseman, G. Scalmani, V. Barone, B. Mennucci, 
 G. A. Petersson, H. Nakatsuji, M. Caricato, X. Li, H. P. Hratchian, 
 A. F. Izmaylov, J. Bloino, G. Zheng, J. L. Sonnenberg, M. Hada, 
 M. Ehara, K. Toyota, R. Fukuda, J. Hasegawa, M. Ishida, T. Nakajima, 
 Y. Honda, O. Kitao, H. Nakai, T. Vreven, J. A. Montgomery, Jr., 
 J. E. Peralta, F. Ogliaro, M. Bearpark, J. J. Heyd, E. Brothers, 
 K. N. Kudin, V. N. Staroverov, T. Keith, R. Kobayashi, J. Normand, 
 K. Raghavachari, A. Rendell, J. C. Burant, S. S. Iyengar, J. Tomasi, 
 M. Cossi, N. Rega, J. M. Millam, M. Klene, J. E. Knox, J. B. Cross, 
 V. Bakken, C. Adamo, J. Jaramillo, R. Gomperts, R. E. Stratmann, 
 O. Yazyev, A. J. Austin, R. Cammi, C. Pomelli, J. W. Ochterski, 
 R. L. Martin, K. Morokuma, V. G. Zakrzewski, G. A. Voth, 
 P. Salvador, J. J. Dannenberg, S. Dapprich, A. D. Daniels, 
 O. Farkas, J. B. Foresman, J. V. Ortiz, J. Cioslowski, 
 and D. J. Fox, Gaussian, Inc., Wallingford CT, 2013.
 
 ******************************************
 Gaussian 09:  EM64W-G09RevD.01 13-Apr-2013
                06-Aug-2018 
 ******************************************
 %Chk=Anth_368.chk
 %Mem=64GB
 %NProcShared=20
 Will use up to   20 processors via shared memory.
 -------------------------------------
 # RB3LYP/6-311++G** Opt Test prop=EFG
 -------------------------------------
 1/14=-1,18=20,19=15,26=3,38=1/1,3;
 2/9=110,12=2,17=6,18=5,40=1/2;
 3/5=4,6=6,7=1111,11=2,16=1,25=1,30=1,71=1,74=-5,116=1/1,2,3;
 4//1;
 5/5=2,38=5/2;
 6/7=2,8=2,9=2,10=2,14=1,28=1/1,2;
 7//1,2,3,16;
 1/14=-1,18=20,19=15,26=3/3(2);
 2/9=110/2;
 99//99;
 2/9=110/2;
 3/5=4,6=6,7=1111,11=2,16=1,25=1,30=1,71=1,74=-5,116=1/1,2,3;
 4/5=5,16=3,69=1/1;
 5/5=2,38=5/2;
 7//1,2,3,16;
 1/14=-1,18=20,19=15,26=3/3(-5);
 2/9=110/2;
 6/7=2,8=2,9=2,10=2,14=1,19=2,28=1/1,2;
 99/9=1/99;
 --------
 C7NH16O3
 --------
 Symbolic Z-matrix:
 Charge =  1 Multiplicity = 1
 N                     0.44005   0.99334   1.13376 
 C                     0.4667    2.4749    0.77946 
 C                     1.8752    0.48979   1.14271 
 C                    -0.1451    0.85162   2.52703 
 C                    -0.38618   0.27932   0.06098 
 C                    -0.60986  -1.22109   0.3119 
 O                    -1.62788  -1.35585   1.27583 
 C                    -1.03173  -1.98812  -0.94725 
 C                    -0.01516  -1.96811  -2.0778 
 O                    -0.25491  -1.95755  -3.26157 
 O                     1.24857  -1.9347   -1.61257 
 H                    -0.55981   2.90697   0.77749 
 H                     0.90878   2.64185  -0.22905 
 H                     1.07234   3.05749   1.51017 
 H                     1.94858  -0.571     1.46504 
 H                     2.33743   0.57417   0.13315 
 H                     2.50079   1.0798    1.85035 
 H                    -0.08743  -0.19675   2.89375 
 H                    -1.20687   1.18633   2.55224 
 H                     0.41966   1.46937   3.26157 
 H                    -1.38647   0.76401  -0.03728 
 H                     0.11327   0.42151  -0.92482 
 H                     0.29342  -1.70996   0.73937 
 H                    -2.50079  -1.40076   0.88053 
 H                    -1.22307  -3.05749  -0.69302 
 H                    -1.98755  -1.56091  -1.33198 
 H                     1.86974  -1.91724  -2.35832 
 

 GradGradGradGradGradGradGradGradGradGradGradGradGradGradGradGradGradGrad
 Berny optimization.
 Initialization pass.
                           ----------------------------
                           !    Initial Parameters    !
                           ! (Angstroms and Degrees)  !
 --------------------------                            --------------------------
 ! Name  Definition              Value          Derivative Info.                !
 --------------------------------------------------------------------------------
 ! R1    R(1,2)                  1.5236         estimate D2E/DX2                !
 ! R2    R(1,3)                  1.521          estimate D2E/DX2                !
 ! R3    R(1,4)                  1.5178         estimate D2E/DX2                !
 ! R4    R(1,5)                  1.5308         estimate D2E/DX2                !
 ! R5    R(2,12)                 1.1137         estimate D2E/DX2                !
 ! R6    R(2,13)                 1.1137         estimate D2E/DX2                !
 ! R7    R(2,14)                 1.1136         estimate D2E/DX2                !
 ! R8    R(3,15)                 1.1111         estimate D2E/DX2                !
 ! R9    R(3,16)                 1.1135         estimate D2E/DX2                !
 ! R10   R(3,17)                 1.1136         estimate D2E/DX2                !
 ! R11   R(4,18)                 1.1121         estimate D2E/DX2                !
 ! R12   R(4,19)                 1.1136         estimate D2E/DX2                !
 ! R13   R(4,20)                 1.1136         estimate D2E/DX2                !
 ! R14   R(5,6)                  1.5376         estimate D2E/DX2                !
 ! R15   R(5,21)                 1.1159         estimate D2E/DX2                !
 ! R16   R(5,22)                 1.1142         estimate D2E/DX2                !
 ! R17   R(6,7)                  1.4084         estimate D2E/DX2                !
 ! R18   R(6,8)                  1.5335         estimate D2E/DX2                !
 ! R19   R(6,23)                 1.1125         estimate D2E/DX2                !
 ! R20   R(7,24)                 0.9593         estimate D2E/DX2                !
 ! R21   R(8,9)                  1.5205         estimate D2E/DX2                !
 ! R22   R(8,25)                 1.1157         estimate D2E/DX2                !
 ! R23   R(8,26)                 1.1154         estimate D2E/DX2                !
 ! R24   R(9,10)                 1.2079         estimate D2E/DX2                !
 ! R25   R(9,11)                 1.3471         estimate D2E/DX2                !
 ! R26   R(11,27)                0.9707         estimate D2E/DX2                !
 ! A1    A(2,1,3)              107.8671         estimate D2E/DX2                !
 ! A2    A(2,1,4)              108.12           estimate D2E/DX2                !
 ! A3    A(2,1,5)              107.4606         estimate D2E/DX2                !
 ! A4    A(3,1,4)              109.115          estimate D2E/DX2                !
 ! A5    A(3,1,5)              111.0382         estimate D2E/DX2                !
 ! A6    A(4,1,5)              113.0582         estimate D2E/DX2                !
 ! A7    A(1,2,12)             111.1951         estimate D2E/DX2                !
 ! A8    A(1,2,13)             111.3021         estimate D2E/DX2                !
 ! A9    A(1,2,14)             111.4476         estimate D2E/DX2                !
 ! A10   A(12,2,13)            107.824          estimate D2E/DX2                !
 ! A11   A(12,2,14)            107.4255         estimate D2E/DX2                !
 ! A12   A(13,2,14)            107.4493         estimate D2E/DX2                !
 ! A13   A(1,3,15)             112.3399         estimate D2E/DX2                !
 ! A14   A(1,3,16)             111.1775         estimate D2E/DX2                !
 ! A15   A(1,3,17)             111.0015         estimate D2E/DX2                !
 ! A16   A(15,3,16)            107.9347         estimate D2E/DX2                !
 ! A17   A(15,3,17)            106.5212         estimate D2E/DX2                !
 ! A18   A(16,3,17)            107.624          estimate D2E/DX2                !
 ! A19   A(1,4,18)             111.7594         estimate D2E/DX2                !
 ! A20   A(1,4,19)             111.1191         estimate D2E/DX2                !
 ! A21   A(1,4,20)             110.988          estimate D2E/DX2                !
 ! A22   A(18,4,19)            108.9852         estimate D2E/DX2                !
 ! A23   A(18,4,20)            106.2073         estimate D2E/DX2                !
 ! A24   A(19,4,20)            107.5713         estimate D2E/DX2                !
 ! A25   A(1,5,6)              114.7911         estimate D2E/DX2                !
 ! A26   A(1,5,21)             110.0566         estimate D2E/DX2                !
 ! A27   A(1,5,22)             108.5766         estimate D2E/DX2                !
 ! A28   A(6,5,21)             107.928          estimate D2E/DX2                !
 ! A29   A(6,5,22)             109.5185         estimate D2E/DX2                !
 ! A30   A(21,5,22)            105.5737         estimate D2E/DX2                !
 ! A31   A(5,6,7)              108.0711         estimate D2E/DX2                !
 ! A32   A(5,6,8)              113.2099         estimate D2E/DX2                !
 ! A33   A(5,6,23)             111.9253         estimate D2E/DX2                !
 ! A34   A(7,6,8)              108.3756         estimate D2E/DX2                !
 ! A35   A(7,6,23)             106.3708         estimate D2E/DX2                !
 ! A36   A(8,6,23)             108.6061         estimate D2E/DX2                !
 ! A37   A(6,7,24)             112.3444         estimate D2E/DX2                !
 ! A38   A(6,8,9)              114.834          estimate D2E/DX2                !
 ! A39   A(6,8,25)             109.8454         estimate D2E/DX2                !
 ! A40   A(6,8,26)             109.1093         estimate D2E/DX2                !
 ! A41   A(9,8,25)             107.2599         estimate D2E/DX2                !
 ! A42   A(9,8,26)             108.1447         estimate D2E/DX2                !
 ! A43   A(25,8,26)            107.3812         estimate D2E/DX2                !
 ! A44   A(8,9,10)             126.5924         estimate D2E/DX2                !
 ! A45   A(8,9,11)             111.7616         estimate D2E/DX2                !
 ! A46   A(10,9,11)            121.6331         estimate D2E/DX2                !
 ! A47   A(9,11,27)            109.5996         estimate D2E/DX2                !
 ! D1    D(3,1,2,12)          -178.8477         estimate D2E/DX2                !
 ! D2    D(3,1,2,13)            60.915          estimate D2E/DX2                !
 ! D3    D(3,1,2,14)           -59.0176         estimate D2E/DX2                !
 ! D4    D(4,1,2,12)           -60.9756         estimate D2E/DX2                !
 ! D5    D(4,1,2,13)           178.7871         estimate D2E/DX2                !
 ! D6    D(4,1,2,14)            58.8545         estimate D2E/DX2                !
 ! D7    D(5,1,2,12)            61.3641         estimate D2E/DX2                !
 ! D8    D(5,1,2,13)           -58.8732         estimate D2E/DX2                !
 ! D9    D(5,1,2,14)          -178.8058         estimate D2E/DX2                !
 ! D10   D(2,1,3,15)           175.8971         estimate D2E/DX2                !
 ! D11   D(2,1,3,16)           -63.0224         estimate D2E/DX2                !
 ! D12   D(2,1,3,17)            56.7483         estimate D2E/DX2                !
 ! D13   D(4,1,3,15)            58.6676         estimate D2E/DX2                !
 ! D14   D(4,1,3,16)           179.748          estimate D2E/DX2                !
 ! D15   D(4,1,3,17)           -60.4813         estimate D2E/DX2                !
 ! D16   D(5,1,3,15)           -66.6023         estimate D2E/DX2                !
 ! D17   D(5,1,3,16)            54.4782         estimate D2E/DX2                !
 ! D18   D(5,1,3,17)           174.2488         estimate D2E/DX2                !
 ! D19   D(2,1,4,18)          -173.5687         estimate D2E/DX2                !
 ! D20   D(2,1,4,19)            64.4477         estimate D2E/DX2                !
 ! D21   D(2,1,4,20)           -55.209          estimate D2E/DX2                !
 ! D22   D(3,1,4,18)           -56.4993         estimate D2E/DX2                !
 ! D23   D(3,1,4,19)          -178.4829         estimate D2E/DX2                !
 ! D24   D(3,1,4,20)            61.8604         estimate D2E/DX2                !
 ! D25   D(5,1,4,18)            67.588          estimate D2E/DX2                !
 ! D26   D(5,1,4,19)           -54.3956         estimate D2E/DX2                !
 ! D27   D(5,1,4,20)          -174.0523         estimate D2E/DX2                !
 ! D28   D(2,1,5,6)           -175.7091         estimate D2E/DX2                !
 ! D29   D(2,1,5,21)           -53.7317         estimate D2E/DX2                !
 ! D30   D(2,1,5,22)            61.3697         estimate D2E/DX2                !
 ! D31   D(3,1,5,6)             66.543          estimate D2E/DX2                !
 ! D32   D(3,1,5,21)          -171.4796         estimate D2E/DX2                !
 ! D33   D(3,1,5,22)           -56.3783         estimate D2E/DX2                !
 ! D34   D(4,1,5,6)            -56.4846         estimate D2E/DX2                !
 ! D35   D(4,1,5,21)            65.4928         estimate D2E/DX2                !
 ! D36   D(4,1,5,22)          -179.4059         estimate D2E/DX2                !
 ! D37   D(1,5,6,7)             78.3053         estimate D2E/DX2                !
 ! D38   D(1,5,6,8)           -161.6472         estimate D2E/DX2                !
 ! D39   D(1,5,6,23)           -38.498          estimate D2E/DX2                !
 ! D40   D(21,5,6,7)           -44.8199         estimate D2E/DX2                !
 ! D41   D(21,5,6,8)            75.2276         estimate D2E/DX2                !
 ! D42   D(21,5,6,23)         -161.6232         estimate D2E/DX2                !
 ! D43   D(22,5,6,7)          -159.2806         estimate D2E/DX2                !
 ! D44   D(22,5,6,8)           -39.2331         estimate D2E/DX2                !
 ! D45   D(22,5,6,23)           83.9161         estimate D2E/DX2                !
 ! D46   D(5,6,7,24)            89.5362         estimate D2E/DX2                !
 ! D47   D(8,6,7,24)           -33.5029         estimate D2E/DX2                !
 ! D48   D(23,6,7,24)         -150.1178         estimate D2E/DX2                !
 ! D49   D(5,6,8,9)             61.5806         estimate D2E/DX2                !
 ! D50   D(5,6,8,25)          -177.4482         estimate D2E/DX2                !
 ! D51   D(5,6,8,26)           -59.9866         estimate D2E/DX2                !
 ! D52   D(7,6,8,9)           -178.5459         estimate D2E/DX2                !
 ! D53   D(7,6,8,25)           -57.5746         estimate D2E/DX2                !
 ! D54   D(7,6,8,26)            59.887          estimate D2E/DX2                !
 ! D55   D(23,6,8,9)           -63.3821         estimate D2E/DX2                !
 ! D56   D(23,6,8,25)           57.5891         estimate D2E/DX2                !
 ! D57   D(23,6,8,26)          175.0507         estimate D2E/DX2                !
 ! D58   D(6,8,9,10)          -146.0691         estimate D2E/DX2                !
 ! D59   D(6,8,9,11)            32.6382         estimate D2E/DX2                !
 ! D60   D(25,8,9,10)           91.5531         estimate D2E/DX2                !
 ! D61   D(25,8,9,11)          -89.7395         estimate D2E/DX2                !
 ! D62   D(26,8,9,10)          -23.9781         estimate D2E/DX2                !
 ! D63   D(26,8,9,11)          154.7292         estimate D2E/DX2                !
 ! D64   D(8,9,11,27)         -179.6572         estimate D2E/DX2                !
 ! D65   D(10,9,11,27)          -0.8762         estimate D2E/DX2                !
 --------------------------------------------------------------------------------
 Trust Radius=3.00D-01 FncErr=1.00D-07 GrdErr=1.00D-06
 Number of steps in this run=    148 maximum allowed number of steps=    162.
 GradGradGradGradGradGradGradGradGradGradGradGradGradGradGradGradGradGrad

                          Input orientation:                          
 ---------------------------------------------------------------------
 Center     Atomic      Atomic             Coordinates (Angstroms)
 Number     Number       Type             X           Y           Z
 ---------------------------------------------------------------------
      1          7           0        0.440049    0.993341    1.133759
      2          6           0        0.466695    2.474897    0.779463
      3          6           0        1.875203    0.489794    1.142708
      4          6           0       -0.145104    0.851618    2.527033
      5          6           0       -0.386179    0.279324    0.060984
      6          6           0       -0.609857   -1.221090    0.311900
      7          8           0       -1.627876   -1.355847    1.275826
      8          6           0       -1.031725   -1.988122   -0.947251
      9          6           0       -0.015161   -1.968105   -2.077801
     10          8           0       -0.254912   -1.957551   -3.261574
     11          8           0        1.248568   -1.934696   -1.612573
     12          1           0       -0.559812    2.906970    0.777491
     13          1           0        0.908783    2.641849   -0.229047
     14          1           0        1.072344    3.057487    1.510172
     15          1           0        1.948580   -0.571002    1.465041
     16          1           0        2.337430    0.574165    0.133145
     17          1           0        2.500788    1.079799    1.850346
     18          1           0       -0.087426   -0.196745    2.893750
     19          1           0       -1.206865    1.186327    2.552238
     20          1           0        0.419662    1.469367    3.261574
     21          1           0       -1.386467    0.764013   -0.037283
     22          1           0        0.113265    0.421510   -0.924817
     23          1           0        0.293417   -1.709958    0.739368
     24          1           0       -2.500788   -1.400757    0.880526
     25          1           0       -1.223074   -3.057487   -0.693022
     26          1           0       -1.987553   -1.560913   -1.331976
     27          1           0        1.869736   -1.917242   -2.358317
 ---------------------------------------------------------------------
                    Distance matrix (angstroms):
                    1          2          3          4          5
     1  N    0.000000
     2  C    1.523563   0.000000
     3  C    1.520956   2.460991   0.000000
     4  C    1.517795   2.462384   2.475664   0.000000
     5  C    1.530790   2.462549   2.515606   2.543037   0.000000
     6  C    2.584852   3.877873   3.129359   3.069027   1.537606
     7  O    3.132919   4.394110   3.961777   2.938883   2.385673
     8  C    3.922479   5.014513   4.354105   4.573934   2.564094
     9  C    4.392209   5.304376   4.470618   5.401131   3.124579
    10  O    5.339446   6.041299   5.470337   6.435174   4.007522
    11  O    4.095051   5.077172   3.723224   5.180946   3.221036
    12  H    2.188293   1.113736   3.450423   2.730815   2.729112
    13  H    2.189642   1.113736   2.728923   3.451316   2.709718
    14  H    2.191388   1.113624   2.715264   2.716992   3.456244
    15  H    2.198314   3.455937   1.111112   2.745030   2.854037
    16  H    2.185633   2.744113   1.113548   3.459863   2.740472
    17  H    2.183487   2.688982   1.113649   2.740569   3.489578
    18  H    2.189087   3.451801   2.718344   1.112148   2.887985
    19  H    2.182121   2.757526   3.459924   1.113554   2.775343
    20  H    2.180508   2.678466   2.750955   1.113609   3.508470
    21  H    2.181763   2.651114   3.479377   2.850329   1.115866
    22  H    2.161368   2.691817   2.717305   3.488125   1.114210
    23  H    2.735849   4.188633   2.739277   3.154317   2.208913
    24  H    3.800573   4.882301   4.774120   3.651496   2.822391
    25  H    4.744714   5.969154   5.054941   5.178018   3.521821
    26  H    4.300850   5.173903   5.024972   4.909875   2.809129
    27  H    4.765511   5.577192   4.248650   5.965971   3.970777
                    6          7          8          9         10
     6  C    0.000000
     7  O    1.408430   0.000000
     8  C    1.533549   2.386889   0.000000
     9  C    2.573396   3.771276   1.520509   0.000000
    10  O    3.665798   4.778606   2.441406   1.207854   0.000000
    11  O    2.768858   4.117262   2.375972   1.347058   2.231631
    12  H    4.154535   4.422749   5.211465   5.675887   6.330132
    13  H    4.185832   4.967983   5.071294   5.052053   5.630709
    14  H    4.750987   5.179153   5.993680   6.269991   7.048530
    15  H    2.880616   3.666445   4.087738   4.284846   5.396182
    16  H    3.455632   4.555691   4.368498   4.109270   4.965273
    17  H    4.163775   4.827868   5.451361   5.572258   6.553709
    18  H    2.826334   2.516780   4.342122   5.278187   6.404413
    19  H    3.342333   2.875609   4.728025   5.727815   6.677619
    20  H    4.122990   4.014653   5.636928   6.365077   7.399343
    21  H    2.160020   2.505262   2.920296   3.675413   4.368453
    22  H    2.179566   3.321656   2.667926   2.656337   3.354984
    23  H    1.112486   2.025969   2.162882   2.845751   4.045924
    24  H    1.982734   0.959299   2.417419   3.905371   4.744573
    25  H    2.181343   2.633592   1.115701   2.136216   2.957136
    26  H    2.171602   2.640464   1.115405   2.147648   2.623493
    27  H    3.709861   5.074983   3.227167   1.906335   2.309032
                   11         12         13         14         15
    11  O    0.000000
    12  H    5.694240   0.000000
    13  H    4.793158   1.800050   0.000000
    14  H    5.891051   1.795386   1.795659   0.000000
    15  H    3.438224   4.342930   3.778032   3.733063   0.000000
    16  H    3.244616   3.775072   2.539199   3.108623   1.799044
    17  H    4.758891   3.722478   3.049320   2.463213   1.782845
    18  H    5.011217   3.786126   4.336117   3.721476   2.515273
    19  H    5.754614   2.555194   3.785506   3.127609   3.771874
    20  H    6.002669   3.032613   3.714618   2.452657   3.119011
    21  H    4.087539   2.437105   2.971736   3.701404   3.893813
    22  H    2.704372   3.086810   2.459034   3.714482   3.172520
    23  H    2.548421   4.695261   4.500525   4.891768   2.136208
    24  H    4.534127   4.725941   5.403609   5.748014   4.563664
    25  H    2.866225   6.178760   6.102665   6.893179   4.571568
    26  H    3.269698   5.142983   5.221918   6.226588   4.929135
    27  H    0.970715   6.245720   5.122747   6.352084   4.054213
                   16         17         18         19         20
    16  H    0.000000
    17  H    1.797535   0.000000
    18  H    3.754353   3.068731   0.000000
    19  H    4.334603   3.775009   1.811812   0.000000
    20  H    3.777074   2.544487   1.779989   1.796903   0.000000
    21  H    3.732626   4.332853   3.346867   2.629872   3.826498
    22  H    2.467691   3.719562   3.873496   3.797051   4.326402
    23  H    3.124534   3.726862   2.660116   3.731730   4.060242
    24  H    5.278944   5.666522   3.365566   3.340937   4.736669
    25  H    5.152537   6.119886   4.726360   5.342465   6.231358
    26  H    5.040894   6.102929   4.829927   4.821195   6.006495
    27  H    3.554325   5.205125   5.863003   6.573520   6.719748
                   21         22         23         24         25
    21  H    0.000000
    22  H    1.776013   0.000000
    23  H    3.089616   2.710189   0.000000
    24  H    2.601983   3.662403   2.814802   0.000000
    25  H    3.880793   3.734026   2.483409   2.617892   0.000000
    26  H    2.728152   2.917056   3.084721   2.276889   1.797894
    27  H    4.814477   3.257280   3.481867   5.464279   3.693080
                   26         27
    26  H    0.000000
    27  H    4.007371   0.000000
 Stoichiometry    C7H16NO3(1+)
 Framework group  C1[X(C7H16NO3)]
 Deg. of freedom    75
 Full point group                 C1      NOp   1
 Largest Abelian subgroup         C1      NOp   1
 Largest concise Abelian subgroup C1      NOp   1
                         Standard orientation:                         
 ---------------------------------------------------------------------
 Center     Atomic      Atomic             Coordinates (Angstroms)
 Number     Number       Type             X           Y           Z
 ---------------------------------------------------------------------
      1          7           0       -1.823130   -0.366542    0.090411
      2          6           0       -2.554103   -1.133567    1.185215
      3          6           0       -1.640899   -1.303489   -1.093746
      4          6           0       -2.695476    0.802149   -0.330157
      5          6           0       -0.470560    0.069231    0.659599
      6          6           0        0.369461    0.951812   -0.278297
      7          8           0       -0.146549    2.261208   -0.224535
      8          6           0        1.853286    1.000778    0.105939
      9          6           0        2.568907   -0.340081    0.062022
     10          8           0        3.459161   -0.705355    0.792044
     11          8           0        2.073792   -1.139049   -0.902902
     12          1           0       -2.735731   -0.489536    2.075520
     13          1           0       -1.967552   -2.019451    1.519244
     14          1           0       -3.544071   -1.502136    0.832685
     15          1           0       -1.177634   -0.795669   -1.966715
     16          1           0       -1.000492   -2.173463   -0.823534
     17          1           0       -2.620860   -1.701526   -1.442253
     18          1           0       -2.271621    1.338221   -1.207566
     19          1           0       -2.828494    1.524979    0.506399
     20          1           0       -3.707549    0.454013   -0.637785
     21          1           0       -0.619032    0.626984    1.614598
     22          1           0        0.109896   -0.841868    0.932425
     23          1           0        0.288007    0.625985   -1.338876
     24          1           0        0.264541    2.787209    0.464364
     25          1           0        2.399678    1.690253   -0.580260
     26          1           0        1.949808    1.412380    1.138120
     27          1           0        2.548073   -1.986006   -0.899546
 ---------------------------------------------------------------------
 Rotational constants (GHZ):      1.6599058      0.6375237      0.5473738
 Standard basis: 6-311++G(d,p) (5D, 7F)
 There are   365 symmetry adapted cartesian basis functions of A   symmetry.
 There are   354 symmetry adapted basis functions of A   symmetry.
   354 basis functions,   540 primitive gaussians,   365 cartesian basis functions
    44 alpha electrons       44 beta electrons
       nuclear repulsion energy       697.8484621835 Hartrees.
 NAtoms=   27 NActive=   27 NUniq=   27 SFac= 1.00D+00 NAtFMM=   60 NAOKFM=F Big=F
 Integral buffers will be    131072 words long.
 Raffenetti 2 integral format.
 Two-electron integral symmetry is turned on.
 One-electron integrals computed using PRISM.
 NBasis=   354 RedAO= T EigKep=  5.80D-06  NBF=   354
 NBsUse=   354 1.00D-06 EigRej= -1.00D+00 NBFU=   354
 ExpMin= 3.60D-02 ExpMax= 8.59D+03 ExpMxC= 1.30D+03 IAcc=3 IRadAn=         5 AccDes= 0.00D+00
 Harris functional with IExCor=  402 and IRadAn=       5 diagonalized for initial guess.
 HarFok:  IExCor=  402 AccDes= 0.00D+00 IRadAn=         5 IDoV= 1 UseB2=F ITyADJ=14
 ICtDFT=  3500011 ScaDFX=  1.000000  1.000000  1.000000  1.000000
 FoFCou: FMM=F IPFlag=           0 FMFlag=      100000 FMFlg1=           0
         NFxFlg=           0 DoJE=T BraDBF=F KetDBF=T FulRan=T
         wScrn=  0.000000 ICntrl=     500 IOpCl=  0 I1Cent=   200000004 NGrid=           0
         NMat0=    1 NMatS0=      1 NMatT0=    0 NMatD0=    1 NMtDS0=    0 NMtDT0=    0
 Petite list used in FoFCou.
 Keep R1 ints in memory in canonical form, NReq=1999092064.
 Requested convergence on RMS density matrix=1.00D-08 within 128 cycles.
 Requested convergence on MAX density matrix=1.00D-06.
 Requested convergence on             energy=1.00D-06.
 No special actions if energy rises.
 SCF Done:  E(RB3LYP) =  -556.728475092     A.U. after   13 cycles
            NFock= 13  Conv=0.50D-08     -V/T= 2.0049

 **********************************************************************

            Population analysis using the SCF density.

 **********************************************************************

 Orbital symmetries:
       Occupied  (A) (A) (A) (A) (A) (A) (A) (A) (A) (A) (A) (A)
                 (A) (A) (A) (A) (A) (A) (A) (A) (A) (A) (A) (A)
                 (A) (A) (A) (A) (A) (A) (A) (A) (A) (A) (A) (A)
                 (A) (A) (A) (A) (A) (A) (A) (A)
       Virtual   (A) (A) (A) (A) (A) (A) (A) (A) (A) (A) (A) (A)
                 (A) (A) (A) (A) (A) (A) (A) (A) (A) (A) (A) (A)
                 (A) (A) (A) (A) (A) (A) (A) (A) (A) (A) (A) (A)
                 (A) (A) (A) (A) (A) (A) (A) (A) (A) (A) (A) (A)
                 (A) (A) (A) (A) (A) (A) (A) (A) (A) (A) (A) (A)
                 (A) (A) (A) (A) (A) (A) (A) (A) (A) (A) (A) (A)
                 (A) (A) (A) (A) (A) (A) (A) (A) (A) (A) (A) (A)
                 (A) (A) (A) (A) (A) (A) (A) (A) (A) (A) (A) (A)
                 (A) (A) (A) (A) (A) (A) (A) (A) (A) (A) (A) (A)
                 (A) (A) (A) (A) (A) (A) (A) (A) (A) (A) (A) (A)
                 (A) (A) (A) (A) (A) (A) (A) (A) (A) (A) (A) (A)
                 (A) (A) (A) (A) (A) (A) (A) (A) (A) (A) (A) (A)
                 (A) (A) (A) (A) (A) (A) (A) (A) (A) (A) (A) (A)
                 (A) (A) (A) (A) (A) (A) (A) (A) (A) (A) (A) (A)
                 (A) (A) (A) (A) (A) (A) (A) (A) (A) (A) (A) (A)
                 (A) (A) (A) (A) (A) (A) (A) (A) (A) (A) (A) (A)
                 (A) (A) (A) (A) (A) (A) (A) (A) (A) (A) (A) (A)
                 (A) (A) (A) (A) (A) (A) (A) (A) (A) (A) (A) (A)
                 (A) (A) (A) (A) (A) (A) (A) (A) (A) (A) (A) (A)
                 (A) (A) (A) (A) (A) (A) (A) (A) (A) (A) (A) (A)
                 (A) (A) (A) (A) (A) (A) (A) (A) (A) (A) (A) (A)
                 (A) (A) (A) (A) (A) (A) (A) (A) (A) (A) (A) (A)
                 (A) (A) (A) (A) (A) (A) (A) (A) (A) (A) (A) (A)
                 (A) (A) (A) (A) (A) (A) (A) (A) (A) (A) (A) (A)
                 (A) (A) (A) (A) (A) (A) (A) (A) (A) (A) (A) (A)
                 (A) (A) (A) (A) (A) (A) (A) (A) (A) (A)
 The electronic state is 1-A.
 Alpha  occ. eigenvalues --  -19.30699 -19.27535 -19.24384 -14.62332 -10.44235
 Alpha  occ. eigenvalues --  -10.40003 -10.39960 -10.39572 -10.39452 -10.38698
 Alpha  occ. eigenvalues --  -10.34088  -1.24856  -1.19531  -1.17614  -1.15284
 Alpha  occ. eigenvalues --   -0.95696  -0.90903  -0.90445  -0.90045  -0.82017
 Alpha  occ. eigenvalues --   -0.78187  -0.75903  -0.70268  -0.69105  -0.68241
 Alpha  occ. eigenvalues --   -0.65860  -0.63836  -0.62249  -0.61158  -0.60552
 Alpha  occ. eigenvalues --   -0.59297  -0.58448  -0.57242  -0.56544  -0.56337
 Alpha  occ. eigenvalues --   -0.56070  -0.55932  -0.54881  -0.53387  -0.52406
 Alpha  occ. eigenvalues --   -0.48893  -0.45834  -0.44296  -0.41010
 Alpha virt. eigenvalues --   -0.14986  -0.13946  -0.12687  -0.12527  -0.11950
 Alpha virt. eigenvalues --   -0.11427  -0.10657  -0.10528  -0.09991  -0.09367
 Alpha virt. eigenvalues --   -0.08949  -0.07151  -0.06658  -0.06008  -0.05558
 Alpha virt. eigenvalues --   -0.04810  -0.04493  -0.04210  -0.03939  -0.03733
 Alpha virt. eigenvalues --   -0.03044  -0.01983  -0.01891  -0.01553  -0.01222
 Alpha virt. eigenvalues --   -0.00918  -0.00472  -0.00185   0.00087   0.00316
 Alpha virt. eigenvalues --    0.01173   0.01414   0.01578   0.02086   0.02130
 Alpha virt. eigenvalues --    0.02725   0.02950   0.03427   0.03792   0.04276
 Alpha virt. eigenvalues --    0.04585   0.04747   0.04850   0.05338   0.05869
 Alpha virt. eigenvalues --    0.06126   0.06479   0.06576   0.06791   0.07228
 Alpha virt. eigenvalues --    0.07993   0.08132   0.09055   0.09490   0.09935
 Alpha virt. eigenvalues --    0.10631   0.11027   0.11452   0.12064   0.12867
 Alpha virt. eigenvalues --    0.13351   0.13672   0.14870   0.15197   0.15986
 Alpha virt. eigenvalues --    0.16236   0.17172   0.17535   0.17918   0.18750
 Alpha virt. eigenvalues --    0.19887   0.19911   0.20802   0.21266   0.21539
 Alpha virt. eigenvalues --    0.22118   0.22330   0.24258   0.24743   0.25556
 Alpha virt. eigenvalues --    0.26293   0.26947   0.27643   0.28023   0.28379
 Alpha virt. eigenvalues --    0.29631   0.30367   0.31955   0.35151   0.36630
 Alpha virt. eigenvalues --    0.38428   0.40300   0.40376   0.41249   0.41631
 Alpha virt. eigenvalues --    0.42429   0.43590   0.43639   0.44742   0.44945
 Alpha virt. eigenvalues --    0.45743   0.46027   0.46425   0.47399   0.48570
 Alpha virt. eigenvalues --    0.49527   0.50410   0.50497   0.52176   0.52435
 Alpha virt. eigenvalues --    0.53349   0.54768   0.55876   0.57870   0.58494
 Alpha virt. eigenvalues --    0.59307   0.59436   0.60690   0.61571   0.61856
 Alpha virt. eigenvalues --    0.63322   0.65086   0.66096   0.66440   0.67316
 Alpha virt. eigenvalues --    0.70199   0.74148   0.75840   0.77204   0.80598
 Alpha virt. eigenvalues --    0.81534   0.83262   0.85607   0.86680   0.88789
 Alpha virt. eigenvalues --    0.91310   0.94655   0.95302   0.96824   0.98111
 Alpha virt. eigenvalues --    1.00730   1.02026   1.05912   1.07448   1.08534
 Alpha virt. eigenvalues --    1.11042   1.11205   1.12559   1.15414   1.16125
 Alpha virt. eigenvalues --    1.20816   1.22158   1.25583   1.26424   1.27499
 Alpha virt. eigenvalues --    1.28917   1.29103   1.29957   1.30984   1.32756
 Alpha virt. eigenvalues --    1.33266   1.34090   1.35973   1.36600   1.37558
 Alpha virt. eigenvalues --    1.39088   1.40492   1.41363   1.41598   1.42856
 Alpha virt. eigenvalues --    1.44445   1.45477   1.46250   1.46971   1.48739
 Alpha virt. eigenvalues --    1.49734   1.50666   1.50938   1.51586   1.53046
 Alpha virt. eigenvalues --    1.53534   1.56305   1.58453   1.61294   1.62437
 Alpha virt. eigenvalues --    1.64231   1.65018   1.65952   1.66512   1.68248
 Alpha virt. eigenvalues --    1.69065   1.71448   1.75804   1.78600   1.79177
 Alpha virt. eigenvalues --    1.80048   1.83702   1.85520   1.85726   1.87625
 Alpha virt. eigenvalues --    1.89096   1.90711   1.94192   1.95736   1.96241
 Alpha virt. eigenvalues --    1.97704   1.98592   1.99078   2.01005   2.02977
 Alpha virt. eigenvalues --    2.05909   2.08725   2.10853   2.13231   2.16613
 Alpha virt. eigenvalues --    2.21805   2.24249   2.25139   2.25985   2.26774
 Alpha virt. eigenvalues --    2.28013   2.29241   2.30025   2.31767   2.34654
 Alpha virt. eigenvalues --    2.35734   2.37458   2.38919   2.41064   2.42589
 Alpha virt. eigenvalues --    2.44595   2.44815   2.45678   2.47322   2.48223
 Alpha virt. eigenvalues --    2.50125   2.51170   2.54883   2.59543   2.61273
 Alpha virt. eigenvalues --    2.62310   2.62900   2.64221   2.65439   2.66719
 Alpha virt. eigenvalues --    2.71453   2.72451   2.75148   2.77425   2.78600
 Alpha virt. eigenvalues --    2.81470   2.82174   2.86293   2.91587   2.94006
 Alpha virt. eigenvalues --    2.95550   2.97855   3.00355   3.03403   3.04548
 Alpha virt. eigenvalues --    3.05049   3.07205   3.08894   3.12700   3.25415
 Alpha virt. eigenvalues --    3.30508   3.35418   3.36568   3.40543   3.48117
 Alpha virt. eigenvalues --    3.49887   3.52978   3.53840   3.53919   3.54287
 Alpha virt. eigenvalues --    3.56609   3.57759   3.58504   3.60358   3.64922
 Alpha virt. eigenvalues --    3.69530   3.71064   3.84547   3.91082   3.95457
 Alpha virt. eigenvalues --    3.99844   4.15155   4.47603   4.49342   4.52557
 Alpha virt. eigenvalues --    4.87866   4.95762   4.99674   5.05463   5.27053
 Alpha virt. eigenvalues --    5.28844   5.46973   5.56347   5.73410  23.61296
 Alpha virt. eigenvalues --   23.66947  23.68763  23.71191  23.71913  23.72214
 Alpha virt. eigenvalues --   23.73498  35.24570  49.74685  49.80734  49.88624
          Condensed to atoms (all electrons):
               1          2          3          4          5          6
     1  N    6.683601   0.297376   0.341716   0.315920  -0.148787  -0.022453
     2  C    0.297376   5.502527  -0.170573  -0.152833  -0.202161  -0.156456
     3  C    0.341716  -0.170573   5.622013  -0.136178  -0.324431  -0.071198
     4  C    0.315920  -0.152833  -0.136178   5.604638  -0.496340   0.149090
     5  C   -0.148787  -0.202161  -0.324431  -0.496340   9.696287  -3.172578
     6  C   -0.022453  -0.156456  -0.071198   0.149090  -3.172578  10.079028
     7  O   -0.058914   0.010995  -0.004228   0.000516  -0.069019   0.223776
     8  C   -0.075223   0.016855  -0.058471  -0.085566   0.909966  -1.289740
     9  C    0.009394  -0.017828   0.037279  -0.014411  -0.055085  -0.101178
    10  O   -0.001121  -0.000853   0.000521  -0.000370  -0.028239   0.009434
    11  O   -0.004536   0.004348   0.014165  -0.002432  -0.091724   0.060214
    12  H   -0.008570   0.383143   0.016871  -0.003757  -0.041829   0.013267
    13  H   -0.016653   0.364097  -0.010547   0.011531   0.023256  -0.002895
    14  H   -0.020101   0.393709  -0.027612  -0.026592   0.052544  -0.017273
    15  H   -0.001847   0.022533   0.382088  -0.022957  -0.034425   0.004818
    16  H    0.004701  -0.015236   0.369304   0.029784  -0.073206   0.000991
    17  H   -0.023458  -0.017558   0.379193  -0.016809   0.019406   0.015767
    18  H   -0.010107   0.010693  -0.018457   0.384977  -0.038522   0.067541
    19  H    0.000000  -0.012426   0.016808   0.387841  -0.028970   0.008283
    20  H   -0.013176  -0.023301  -0.014180   0.353961   0.036989  -0.001146
    21  H   -0.009594  -0.009550   0.001894  -0.021646   0.353846   0.054094
    22  H    0.014590   0.050783  -0.004409   0.030205   0.396890  -0.218082
    23  H    0.029928   0.004048  -0.010949   0.027731  -0.405488   0.718355
    24  H    0.007855  -0.000356   0.001053  -0.000718  -0.048873   0.135101
    25  H   -0.002477  -0.002663   0.000160   0.000238   0.010101  -0.134756
    26  H    0.000769  -0.000279  -0.004306   0.002336  -0.182013   0.255138
    27  H   -0.000366  -0.000883   0.001064  -0.001371   0.014780  -0.013408
               7          8          9         10         11         12
     1  N   -0.058914  -0.075223   0.009394  -0.001121  -0.004536  -0.008570
     2  C    0.010995   0.016855  -0.017828  -0.000853   0.004348   0.383143
     3  C   -0.004228  -0.058471   0.037279   0.000521   0.014165   0.016871
     4  C    0.000516  -0.085566  -0.014411  -0.000370  -0.002432  -0.003757
     5  C   -0.069019   0.909966  -0.055085  -0.028239  -0.091724  -0.041829
     6  C    0.223776  -1.289740  -0.101178   0.009434   0.060214   0.013267
     7  O    7.989093  -0.033315   0.018294  -0.000237  -0.003982   0.000114
     8  C   -0.033315   6.784587  -0.204556  -0.018897  -0.228709  -0.005538
     9  C    0.018294  -0.204556   6.063988   0.453471   0.132122  -0.003194
    10  O   -0.000237  -0.018897   0.453471   7.946475  -0.134151  -0.000072
    11  O   -0.003982  -0.228709   0.132122  -0.134151   8.151969   0.000302
    12  H    0.000114  -0.005538  -0.003194  -0.000072   0.000302   0.489294
    13  H   -0.000091   0.001893   0.010801   0.000645  -0.003538  -0.036303
    14  H    0.001437   0.001273  -0.001870  -0.000023   0.000186  -0.025796
    15  H   -0.003897   0.005105   0.008961  -0.001681  -0.001995  -0.002387
    16  H    0.003645   0.006031  -0.005958   0.000691   0.005020  -0.000152
    17  H   -0.000399  -0.001342   0.001107   0.000134   0.002785   0.000061
    18  H   -0.029024  -0.009897  -0.001426   0.000171   0.001261   0.000401
    19  H   -0.009890  -0.008490   0.000621  -0.000043   0.000315   0.000870
    20  H    0.006431   0.004110   0.000464  -0.000029  -0.000428   0.003473
    21  H   -0.033000  -0.045677   0.033017   0.000019   0.003498   0.000623
    22  H    0.025824   0.015670  -0.112929  -0.013576   0.033305   0.004935
    23  H   -0.079775  -0.119696  -0.069707   0.004624  -0.005277   0.001823
    24  H    0.233918  -0.082269  -0.004166   0.000779   0.000479   0.000631
    25  H    0.006344   0.449329   0.032704  -0.006677   0.003167  -0.000182
    26  H   -0.010003   0.376360  -0.120838  -0.016079  -0.000269   0.000685
    27  H   -0.000545  -0.027002   0.058142  -0.011928   0.235775  -0.000204
              13         14         15         16         17         18
     1  N   -0.016653  -0.020101  -0.001847   0.004701  -0.023458  -0.010107
     2  C    0.364097   0.393709   0.022533  -0.015236  -0.017558   0.010693
     3  C   -0.010547  -0.027612   0.382088   0.369304   0.379193  -0.018457
     4  C    0.011531  -0.026592  -0.022957   0.029784  -0.016809   0.384977
     5  C    0.023256   0.052544  -0.034425  -0.073206   0.019406  -0.038522
     6  C   -0.002895  -0.017273   0.004818   0.000991   0.015767   0.067541
     7  O   -0.000091   0.001437  -0.003897   0.003645  -0.000399  -0.029024
     8  C    0.001893   0.001273   0.005105   0.006031  -0.001342  -0.009897
     9  C    0.010801  -0.001870   0.008961  -0.005958   0.001107  -0.001426
    10  O    0.000645  -0.000023  -0.001681   0.000691   0.000134   0.000171
    11  O   -0.003538   0.000186  -0.001995   0.005020   0.002785   0.001261
    12  H   -0.036303  -0.025796  -0.002387  -0.000152   0.000061   0.000401
    13  H    0.501525  -0.031751  -0.000021  -0.003024   0.003010  -0.002659
    14  H   -0.031751   0.490099  -0.001009   0.002417  -0.003648   0.000710
    15  H   -0.000021  -0.001009   0.492883  -0.030228  -0.029089  -0.001053
    16  H   -0.003024   0.002417  -0.030228   0.499240  -0.023958  -0.001974
    17  H    0.003010  -0.003648  -0.029089  -0.023958   0.473770   0.000971
    18  H   -0.002659   0.000710  -0.001053  -0.001974   0.000971   0.447379
    19  H   -0.001992   0.004771   0.000050  -0.003188   0.003152  -0.020033
    20  H    0.002256  -0.008447   0.002945   0.004391  -0.009859  -0.034355
    21  H    0.004748  -0.000761   0.000738  -0.000346  -0.000128   0.004604
    22  H   -0.019342   0.003000  -0.001096   0.004097  -0.002624   0.000085
    23  H   -0.002323   0.001480  -0.001758   0.010749   0.003573  -0.011338
    24  H   -0.000442   0.000081  -0.000251  -0.000542  -0.000027   0.002618
    25  H    0.000637  -0.000244   0.001373  -0.000438  -0.000317  -0.000842
    26  H   -0.000557   0.000161  -0.000835   0.000712   0.000346   0.000217
    27  H    0.000674   0.000038   0.000740  -0.003101  -0.000133  -0.000063
              19         20         21         22         23         24
     1  N    0.000000  -0.013176  -0.009594   0.014590   0.029928   0.007855
     2  C   -0.012426  -0.023301  -0.009550   0.050783   0.004048  -0.000356
     3  C    0.016808  -0.014180   0.001894  -0.004409  -0.010949   0.001053
     4  C    0.387841   0.353961  -0.021646   0.030205   0.027731  -0.000718
     5  C   -0.028970   0.036989   0.353846   0.396890  -0.405488  -0.048873
     6  C    0.008283  -0.001146   0.054094  -0.218082   0.718355   0.135101
     7  O   -0.009890   0.006431  -0.033000   0.025824  -0.079775   0.233918
     8  C   -0.008490   0.004110  -0.045677   0.015670  -0.119696  -0.082269
     9  C    0.000621   0.000464   0.033017  -0.112929  -0.069707  -0.004166
    10  O   -0.000043  -0.000029   0.000019  -0.013576   0.004624   0.000779
    11  O    0.000315  -0.000428   0.003498   0.033305  -0.005277   0.000479
    12  H    0.000870   0.003473   0.000623   0.004935   0.001823   0.000631
    13  H   -0.001992   0.002256   0.004748  -0.019342  -0.002323  -0.000442
    14  H    0.004771  -0.008447  -0.000761   0.003000   0.001480   0.000081
    15  H    0.000050   0.002945   0.000738  -0.001096  -0.001758  -0.000251
    16  H   -0.003188   0.004391  -0.000346   0.004097   0.010749  -0.000542
    17  H    0.003152  -0.009859  -0.000128  -0.002624   0.003573  -0.000027
    18  H   -0.020033  -0.034355   0.004604   0.000085  -0.011338   0.002618
    19  H    0.461876  -0.029704  -0.013200   0.001761   0.006800   0.001556
    20  H   -0.029704   0.516215   0.002267  -0.004506  -0.004887  -0.000857
    21  H   -0.013200   0.002267   0.482512  -0.057461  -0.006999  -0.001650
    22  H    0.001761  -0.004506  -0.057461   0.603207   0.015076   0.001852
    23  H    0.006800  -0.004887  -0.006999   0.015076   0.637931   0.018677
    24  H    0.001556  -0.000857  -0.001650   0.001852   0.018677   0.451052
    25  H   -0.000303   0.000494   0.002555  -0.013730  -0.026114  -0.007185
    26  H    0.001526  -0.000385  -0.003065  -0.002727   0.023092  -0.004836
    27  H    0.000017  -0.000088   0.001311  -0.008368  -0.003093   0.000007
              25         26         27
     1  N   -0.002477   0.000769  -0.000366
     2  C   -0.002663  -0.000279  -0.000883
     3  C    0.000160  -0.004306   0.001064
     4  C    0.000238   0.002336  -0.001371
     5  C    0.010101  -0.182013   0.014780
     6  C   -0.134756   0.255138  -0.013408
     7  O    0.006344  -0.010003  -0.000545
     8  C    0.449329   0.376360  -0.027002
     9  C    0.032704  -0.120838   0.058142
    10  O   -0.006677  -0.016079  -0.011928
    11  O    0.003167  -0.000269   0.235775
    12  H   -0.000182   0.000685  -0.000204
    13  H    0.000637  -0.000557   0.000674
    14  H   -0.000244   0.000161   0.000038
    15  H    0.001373  -0.000835   0.000740
    16  H   -0.000438   0.000712  -0.003101
    17  H   -0.000317   0.000346  -0.000133
    18  H   -0.000842   0.000217  -0.000063
    19  H   -0.000303   0.001526   0.000017
    20  H    0.000494  -0.000385  -0.000088
    21  H    0.002555  -0.003065   0.001311
    22  H   -0.013730  -0.002727  -0.008368
    23  H   -0.026114   0.023092  -0.003093
    24  H   -0.007185  -0.004836   0.000007
    25  H    0.448721  -0.016186   0.003173
    26  H   -0.016186   0.485472  -0.002809
    27  H    0.003173  -0.002809   0.434234
 Mulliken charges:
               1
     1  N   -0.288467
     2  C   -0.278151
     3  C   -0.328590
     4  C   -0.316788
     5  C   -0.072376
     6  C   -0.593735
     7  O   -0.184069
     8  C   -0.276792
     9  C   -0.147219
    10  O   -0.182988
    11  O   -0.171869
    12  H    0.211488
    13  H    0.207065
    14  H    0.213221
    15  H    0.212296
    16  H    0.219578
    17  H    0.226076
    18  H    0.258125
    19  H    0.231992
    20  H    0.211352
    21  H    0.257351
    22  H    0.257570
    23  H    0.243518
    24  H    0.296515
    25  H    0.253118
    26  H    0.218374
    27  H    0.323408
 Sum of Mulliken charges =   1.00000
 Mulliken charges with hydrogens summed into heavy atoms:
               1
     1  N   -0.288467
     2  C    0.353623
     3  C    0.329360
     4  C    0.384680
     5  C    0.442544
     6  C   -0.350217
     7  O    0.112445
     8  C    0.194700
     9  C   -0.147219
    10  O   -0.182988
    11  O    0.151539
 Electronic spatial extent (au):  <R**2>=           2171.3174
 Charge=              1.0000 electrons
 Dipole moment (field-independent basis, Debye):
    X=             -7.4153    Y=             -1.5377    Z=              0.0988  Tot=              7.5737
 Quadrupole moment (field-independent basis, Debye-Ang):
   XX=            -48.2603   YY=            -53.5153   ZZ=            -60.5057
   XY=              6.9650   XZ=             -6.6808   YZ=              5.4404
 Traceless Quadrupole moment (field-independent basis, Debye-Ang):
   XX=              5.8335   YY=              0.5784   ZZ=             -6.4119
   XY=              6.9650   XZ=             -6.6808   YZ=              5.4404
 Octapole moment (field-independent basis, Debye-Ang**2):
  XXX=            -85.6899  YYY=            -10.6801  ZZZ=             -0.4159  XYY=              9.4646
  XXY=             -3.7486  XXZ=            -22.1962  XZZ=            -14.2863  YZZ=             -1.9642
  YYZ=              4.7417  XYZ=              9.5787
 Hexadecapole moment (field-independent basis, Debye-Ang**3):
 XXXX=          -1746.7772 YYYY=           -522.0119 ZZZZ=           -289.4520 XXXY=             31.2988
 XXXZ=            -95.9072 YYYX=            -11.1986 YYYZ=             45.6858 ZZZX=            -10.9534
 ZZZY=              6.4090 XXYY=           -329.3848 XXZZ=           -335.7303 YYZZ=           -134.2674
 XXYZ=             19.1056 YYXZ=            -16.9303 ZZXY=              7.3095
 N-N= 6.978484621835D+02 E-N=-2.681476621515D+03  KE= 5.539955558202D+02

 **********************************************************************

            Electrostatic Properties Using The SCF Density

 **********************************************************************

       Atomic Center    1 is at  -1.823130 -0.366542  0.090411
       Atomic Center    2 is at  -2.554103 -1.133567  1.185215
       Atomic Center    3 is at  -1.640899 -1.303489 -1.093746
       Atomic Center    4 is at  -2.695476  0.802149 -0.330157
       Atomic Center    5 is at  -0.470560  0.069231  0.659599
       Atomic Center    6 is at   0.369461  0.951812 -0.278297
       Atomic Center    7 is at  -0.146549  2.261208 -0.224535
       Atomic Center    8 is at   1.853286  1.000778  0.105939
       Atomic Center    9 is at   2.568907 -0.340081  0.062022
       Atomic Center   10 is at   3.459161 -0.705355  0.792044
       Atomic Center   11 is at   2.073792 -1.139049 -0.902902
       Atomic Center   12 is at  -2.735731 -0.489536  2.075520
       Atomic Center   13 is at  -1.967552 -2.019451  1.519244
       Atomic Center   14 is at  -3.544071 -1.502136  0.832685
       Atomic Center   15 is at  -1.177634 -0.795669 -1.966715
       Atomic Center   16 is at  -1.000492 -2.173463 -0.823534
       Atomic Center   17 is at  -2.620860 -1.701526 -1.442253
       Atomic Center   18 is at  -2.271621  1.338221 -1.207566
       Atomic Center   19 is at  -2.828494  1.524979  0.506399
       Atomic Center   20 is at  -3.707549  0.454013 -0.637785
       Atomic Center   21 is at  -0.619032  0.626984  1.614598
       Atomic Center   22 is at   0.109896 -0.841868  0.932425
       Atomic Center   23 is at   0.288007  0.625985 -1.338876
       Atomic Center   24 is at   0.264541  2.787209  0.464364
       Atomic Center   25 is at   2.399678  1.690253 -0.580260
       Atomic Center   26 is at   1.949808  1.412380  1.138120
       Atomic Center   27 is at   2.548073 -1.986006 -0.899546
 -----------------------------------------------------------------

              Electrostatic Properties (Atomic Units)

 -----------------------------------------------------------------
    Center     Electric         -------- Electric Field --------
               Potential          X             Y             Z
 -----------------------------------------------------------------
    1 Atom    -18.086693     -0.000760     -0.000513      0.000386
    2 Atom    -14.550189     -0.006124     -0.006204      0.008873
    3 Atom    -14.551075      0.001517     -0.008040     -0.009776
    4 Atom    -14.558729     -0.007363      0.011349     -0.004195
    5 Atom    -14.547491      0.012716      0.003665      0.003564
    6 Atom    -14.544037      0.005429     -0.007690     -0.003112
    7 Atom    -22.218294     -0.032831      0.017909     -0.030669
    8 Atom    -14.605546      0.000910      0.001239      0.001208
    9 Atom    -14.509033     -0.001520      0.011578      0.005626
   10 Atom    -22.257157      0.038335     -0.013695      0.031872
   11 Atom    -22.188725     -0.031241      0.008589     -0.029507
   12 Atom     -0.918766      0.002296      0.005624     -0.000692
   13 Atom     -0.918768      0.005395     -0.000411     -0.002692
   14 Atom     -0.918849     -0.001076      0.001807     -0.006225
   15 Atom     -0.920328      0.002397      0.006190      0.001398
   16 Atom     -0.919895      0.002176      0.000651      0.005369
   17 Atom     -0.919074     -0.005313      0.002382      0.004286
   18 Atom     -0.930712      0.006764      0.000161      0.001198
   19 Atom     -0.927901      0.004386     -0.000593      0.002842
   20 Atom     -0.926724     -0.001057     -0.008483      0.001800
   21 Atom     -0.918218     -0.007852      0.001425      0.000503
   22 Atom     -0.919878     -0.004792     -0.008037     -0.001952
   23 Atom     -0.950968     -0.001291     -0.002169     -0.003609
   24 Atom     -0.848765      0.013733      0.016426      0.021099
   25 Atom     -0.945664     -0.000654      0.003570     -0.003300
   26 Atom     -0.952153      0.004509      0.000665      0.004173
   27 Atom     -0.826145      0.014956     -0.019897      0.000264
 -----------------------------------------------------------------
 -----------------------------------------------------
    Center         ---- Electric Field Gradient ----
                     XX            YY            ZZ
 -----------------------------------------------------
    1 Atom     -812.798660   -812.779980   -812.812506
    2 Atom     -500.417353   -500.432363   -500.605059
    3 Atom     -500.224482   -500.486223   -500.615913
    4 Atom     -500.472791   -500.614784   -500.276455
    5 Atom     -500.935336   -500.436898   -500.568053
    6 Atom     -500.322726   -500.668059   -500.174215
    7 Atom    -1235.472494  -1237.808280  -1235.970319
    8 Atom     -500.464557   -500.418964   -500.316812
    9 Atom     -501.271912   -501.162838   -501.414772
   10 Atom    -1239.050262  -1237.258677  -1238.499675
   11 Atom    -1236.119829  -1237.905100  -1236.461095
   12 Atom       -1.640976     -1.780586     -1.879062
   13 Atom       -1.757122     -1.876164     -1.670501
   14 Atom       -1.937677     -1.671783     -1.692014
   15 Atom       -1.700475     -1.739054     -1.876841
   16 Atom       -1.757226     -1.867799     -1.675679
   17 Atom       -1.945939     -1.680294     -1.673578
   18 Atom       -1.699480     -1.719212     -1.869752
   19 Atom       -1.634769     -1.793025     -1.863034
   20 Atom       -1.957085     -1.699526     -1.660815
   21 Atom       -1.674803     -1.741998     -1.921776
   22 Atom       -1.769769     -1.925316     -1.670590
   23 Atom       -1.694950     -1.728691     -2.036763
   24 Atom       -1.649833     -1.756991     -1.879070
   25 Atom       -1.708379     -1.764497     -1.761896
   26 Atom       -1.652942     -1.697780     -1.975006
   27 Atom       -1.624954     -1.978247     -1.480666
 -----------------------------------------------------
 -----------------------------------------------------
    Center         ---- Electric Field Gradient ----
                     XY            XZ            YZ
 -----------------------------------------------------
    1 Atom       -0.009655     -0.007530     -0.011496
    2 Atom       -0.162381      0.233912      0.242471
    3 Atom        0.046972      0.050183     -0.328533
    4 Atom        0.320017     -0.123771      0.134587
    5 Atom       -0.139925     -0.240121     -0.064102
    6 Atom        0.126526      0.059731      0.037345
    7 Atom        0.415674     -0.794872     -1.104611
    8 Atom        0.040192     -0.015820     -0.030031
    9 Atom       -0.281503      0.232895     -0.000062
   10 Atom       -0.153854      0.113053      1.094948
   11 Atom        0.278671     -0.240758     -0.948986
   12 Atom        0.026833      0.053129     -0.177361
   13 Atom        0.165582     -0.049572      0.093724
   14 Atom       -0.114784     -0.114330     -0.033667
   15 Atom       -0.082352      0.130220      0.136468
   16 Atom        0.177071     -0.062451      0.071572
   17 Atom       -0.116209     -0.095960     -0.050287
   18 Atom       -0.057200      0.125368      0.147000
   19 Atom        0.038146      0.023493     -0.184466
   20 Atom       -0.114377     -0.098013     -0.031545
   21 Atom        0.021604      0.049093     -0.166318
   22 Atom        0.151687     -0.050568      0.073643
   23 Atom       -0.012598     -0.032720     -0.109940
   24 Atom       -0.146670     -0.239145     -0.284404
   25 Atom       -0.111560      0.116180      0.149380
   26 Atom       -0.004473     -0.027149     -0.134227
   27 Atom        0.273174     -0.014209     -0.015886
 -----------------------------------------------------
 -----------------------------------------------------
    Center         ---- Electric Field Gradient ----
                   ----       Eigenvalues       ----
 -----------------------------------------------------
    1 Atom     -812.820964   -812.796025   -812.774157
    2 Atom     -500.933257   -500.262716   -500.258802
    3 Atom     -500.892978   -500.221264   -500.212376
    4 Atom     -500.923073   -500.233144   -500.207813
    5 Atom     -501.090218   -500.449791   -500.400277
    6 Atom     -500.710000   -500.314493   -500.140506
    7 Atom    -1238.326791  -1236.358266  -1234.566036
    8 Atom     -500.487981   -500.408143   -500.304210
    9 Atom     -501.656612   -501.308245   -500.884664
   10 Atom    -1239.275334  -1238.915034  -1236.618245
   11 Atom    -1238.384709  -1236.394750  -1235.706566
   12 Atom       -2.022872     -1.651565     -1.626187
   13 Atom       -2.023941     -1.652749     -1.627098
   14 Atom       -2.023091     -1.651980     -1.626402
   15 Atom       -2.032343     -1.655186     -1.628842
   16 Atom       -2.023766     -1.652245     -1.624693
   17 Atom       -2.022749     -1.651411     -1.625651
   18 Atom       -2.018435     -1.651315     -1.618695
   19 Atom       -2.020460     -1.650369     -1.619998
   20 Atom       -2.029248     -1.657114     -1.631065
   21 Atom       -2.028945     -1.668457     -1.641175
   22 Atom       -2.039576     -1.677817     -1.648282
   23 Atom       -2.075195     -1.694797     -1.690412
   24 Atom       -2.240370     -1.555785     -1.489740
   25 Atom       -2.001153     -1.621407     -1.612212
   26 Atom       -2.031250     -1.654362     -1.640116
   27 Atom       -2.126993     -1.498626     -1.458249
 -----------------------------------------------------
 -----------------------------------------------------
    Center         ---- Electric Field Gradient ----
                       ( tensor representation )
                   3XX-RR        3YY-RR        3ZZ-RR
 -----------------------------------------------------
    1 Atom       -0.001611      0.017069     -0.015457
    2 Atom        0.067572      0.052562     -0.120134
    3 Atom        0.217724     -0.044017     -0.173707
    4 Atom       -0.018114     -0.160107      0.178222
    5 Atom       -0.288574      0.209864      0.078709
    6 Atom        0.065607     -0.279726      0.214118
    7 Atom        0.944537     -1.391249      0.446712
    8 Atom       -0.064446     -0.018853      0.083299
    9 Atom        0.011262      0.120336     -0.131598
   10 Atom       -0.780724      1.010861     -0.230137
   11 Atom        0.708846     -1.076425      0.367580
   12 Atom        0.125899     -0.013712     -0.112187
   13 Atom        0.010807     -0.108235      0.097429
   14 Atom       -0.170519      0.095375      0.075144
   15 Atom        0.071648      0.033070     -0.104718
   16 Atom        0.009676     -0.100898      0.091222
   17 Atom       -0.179335      0.086309      0.093026
   18 Atom        0.063335      0.043602     -0.106937
   19 Atom        0.128841     -0.029416     -0.099425
   20 Atom       -0.184609      0.072949      0.111660
   21 Atom        0.104722      0.037528     -0.142250
   22 Atom        0.018789     -0.136757      0.117968
   23 Atom        0.125184      0.091444     -0.216628
   24 Atom        0.112131      0.004974     -0.117105
   25 Atom        0.036544     -0.019573     -0.016972
   26 Atom        0.122301      0.077463     -0.199764
   27 Atom        0.069669     -0.283625      0.213956
 -----------------------------------------------------
 -----------------------------------------------------
    Center         ---- Electric Field Gradient ----
                       ( tensor representation )
                   ----       Eigenvalues       ----
 -----------------------------------------------------
    1 Atom       -0.023915      0.001024      0.022891
    2 Atom       -0.448332      0.222209      0.226123
    3 Atom       -0.450772      0.220942      0.229830
    4 Atom       -0.468397      0.221533      0.246864
    5 Atom       -0.443456      0.196971      0.246485
    6 Atom       -0.321667      0.073840      0.247827
    7 Atom       -1.909760      0.058765      1.850995
    8 Atom       -0.087870     -0.008032      0.095901
    9 Atom       -0.373438     -0.025072      0.398510
   10 Atom       -1.005797     -0.645496      1.651292
   11 Atom       -1.556034      0.433925      1.122109
   12 Atom       -0.255997      0.115310      0.140687
   13 Atom       -0.256011      0.115180      0.140831
   14 Atom       -0.255933      0.115178      0.140756
   15 Atom       -0.260219      0.116938      0.143281
   16 Atom       -0.256865      0.114656      0.142208
   17 Atom       -0.256146      0.115193      0.140953
   18 Atom       -0.255620      0.111500      0.144120
   19 Atom       -0.256851      0.113240      0.143611
   20 Atom       -0.256773      0.115362      0.141411
   21 Atom       -0.249420      0.111069      0.138351
   22 Atom       -0.251017      0.110741      0.140276
   23 Atom       -0.255060      0.125338      0.129722
   24 Atom       -0.478405      0.206180      0.272225
   25 Atom       -0.256229      0.123517      0.132712
   26 Atom       -0.256008      0.120881      0.135127
   27 Atom       -0.432370      0.195997      0.236373
 -----------------------------------------------------
 Calling FoFJK, ICntrl=      2127 FMM=F ISym2X=0 I1Cent= 0 IOpClX= 0 NMat=1 NMatS=1 NMatT=0.
 ***** Axes restored to original set *****
 -------------------------------------------------------------------
 Center     Atomic                   Forces (Hartrees/Bohr)
 Number     Number              X              Y              Z
 -------------------------------------------------------------------
      1        7           0.005647765    0.011472246    0.000263786
      2        6           0.000158984    0.021707540   -0.005610997
      3        6           0.021577524   -0.007232778   -0.000299799
      4        6          -0.008669271   -0.003895935    0.023472391
      5        6          -0.003882269   -0.002562655   -0.022678515
      6        6           0.000703706   -0.008998246    0.005206728
      7        8          -0.000353517   -0.003758781    0.019844623
      8        6          -0.005554373   -0.000777045   -0.010591402
      9        6          -0.004791807    0.002414729   -0.022021895
     10        8          -0.004219371   -0.000971957    0.013868007
     11        8           0.010202956    0.001180349    0.011030402
     12        1           0.011488728   -0.011379783    0.001370519
     13        1          -0.005460187   -0.008285041    0.012754873
     14        1          -0.006872381   -0.013549110   -0.006436589
     15        1          -0.007762723    0.013543764   -0.004556740
     16        1          -0.011542180    0.000630179    0.011672015
     17        1          -0.014075379   -0.003494960   -0.008023334
     18        1          -0.002265242    0.012635401   -0.011953461
     19        1           0.014990593   -0.005908528   -0.005653194
     20        1          -0.002600631   -0.004139893   -0.015966761
     21        1           0.014961825   -0.002340142    0.008068156
     22        1           0.000620567    0.002978671    0.016392491
     23        1          -0.010050648    0.007499460   -0.005357748
     24        1          -0.002832899   -0.000777250   -0.003870749
     25        1           0.002282520    0.013512492    0.000037882
     26        1           0.011172703   -0.007002036    0.001110993
     27        1          -0.002874994   -0.002500694   -0.002071681
 -------------------------------------------------------------------
 Cartesian Forces:  Max     0.023472391 RMS     0.009700029

 GradGradGradGradGradGradGradGradGradGradGradGradGradGradGradGradGradGrad
 Berny optimization.
 FormGI is forming the generalized inverse of G from B-inverse, IUseBI=4.
 Internal  Forces:  Max     0.016191941 RMS     0.006364470
 Search for a local minimum.
 Step number   1 out of a maximum of  148
 All quantities printed in internal units (Hartrees-Bohrs-Radians)
 Mixed Optimization -- RFO/linear search
 Second derivative matrix not updated -- first step.
 ITU=  0
     Eigenvalues ---    0.00230   0.00230   0.00230   0.00230   0.00268
     Eigenvalues ---    0.00322   0.00495   0.00930   0.01580   0.02392
     Eigenvalues ---    0.03214   0.03845   0.04013   0.04131   0.04682
     Eigenvalues ---    0.04872   0.04906   0.05218   0.05263   0.05295
     Eigenvalues ---    0.05295   0.05368   0.05380   0.05413   0.05459
     Eigenvalues ---    0.07718   0.08668   0.09696   0.12454   0.13036
     Eigenvalues ---    0.14147   0.14579   0.16000   0.16000   0.16000
     Eigenvalues ---    0.16000   0.16000   0.16000   0.16000   0.16000
     Eigenvalues ---    0.16000   0.16000   0.16000   0.16749   0.19560
     Eigenvalues ---    0.21915   0.22015   0.24996   0.25000   0.28732
     Eigenvalues ---    0.29098   0.29351   0.30026   0.30275   0.30318
     Eigenvalues ---    0.30580   0.31987   0.32004   0.32034   0.32158
     Eigenvalues ---    0.32208   0.32208   0.32217   0.32219   0.32221
     Eigenvalues ---    0.32227   0.32227   0.32338   0.32374   0.32483
     Eigenvalues ---    0.44252   0.53231   0.55624   0.55652   1.00974
 RFO step:  Lambda=-2.18562382D-02 EMin= 2.30000000D-03
 Linear search not attempted -- first point.
 Iteration  1 RMS(Cart)=  0.04880905 RMS(Int)=  0.00105028
 Iteration  2 RMS(Cart)=  0.00178872 RMS(Int)=  0.00045969
 Iteration  3 RMS(Cart)=  0.00000129 RMS(Int)=  0.00045969
 Iteration  4 RMS(Cart)=  0.00000000 RMS(Int)=  0.00045969
 Variable       Old X    -DE/DX   Delta X   Delta X   Delta X     New X
                                 (Linear)    (Quad)   (Total)
    R1        2.87912  -0.01168   0.00000  -0.03627  -0.03627   2.84285
    R2        2.87419  -0.01230   0.00000  -0.03788  -0.03788   2.83631
    R3        2.86822  -0.00971   0.00000  -0.02962  -0.02962   2.83860
    R4        2.89277  -0.00822   0.00000  -0.02607  -0.02607   2.86671
    R5        2.10466  -0.01500   0.00000  -0.04362  -0.04362   2.06103
    R6        2.10466  -0.01496   0.00000  -0.04350  -0.04350   2.06116
    R7        2.10444  -0.01505   0.00000  -0.04375  -0.04375   2.06070
    R8        2.09970  -0.01477   0.00000  -0.04259  -0.04259   2.05711
    R9        2.10430  -0.01533   0.00000  -0.04455  -0.04455   2.05976
   R10        2.10449  -0.01485   0.00000  -0.04318  -0.04318   2.06131
   R11        2.10166  -0.01597   0.00000  -0.04621  -0.04621   2.05544
   R12        2.10431  -0.01619   0.00000  -0.04705  -0.04705   2.05726
   R13        2.10442  -0.01415   0.00000  -0.04113  -0.04113   2.06329
   R14        2.90565   0.00227   0.00000   0.00733   0.00733   2.91299
   R15        2.10868  -0.01514   0.00000  -0.04430  -0.04430   2.06438
   R16        2.10555  -0.01384   0.00000  -0.04031  -0.04031   2.06524
   R17        2.66155   0.01366   0.00000   0.02943   0.02943   2.69097
   R18        2.89799   0.00244   0.00000   0.00781   0.00781   2.90580
   R19        2.10229  -0.01351   0.00000  -0.03914  -0.03914   2.06315
   R20        1.81281   0.00421   0.00000   0.00728   0.00728   1.82010
   R21        2.87334  -0.00171   0.00000  -0.00525  -0.00525   2.86809
   R22        2.10837  -0.01333   0.00000  -0.03900  -0.03900   2.06937
   R23        2.10781  -0.01264   0.00000  -0.03695  -0.03695   2.07086
   R24        2.28251  -0.01276   0.00000  -0.01237  -0.01237   2.27014
   R25        2.54557   0.00995   0.00000   0.01721   0.01721   2.56278
   R26        1.83439  -0.00029   0.00000  -0.00053  -0.00053   1.83386
    A1        1.88264  -0.00026   0.00000   0.00364   0.00362   1.88625
    A2        1.88705   0.00049   0.00000   0.00565   0.00564   1.89269
    A3        1.87554   0.00063   0.00000   0.00390   0.00392   1.87946
    A4        1.90442   0.00079   0.00000   0.00475   0.00468   1.90910
    A5        1.93798  -0.00007   0.00000  -0.00277  -0.00278   1.93520
    A6        1.97324  -0.00153   0.00000  -0.01418  -0.01418   1.95906
    A7        1.94072  -0.00601   0.00000  -0.03328  -0.03387   1.90685
    A8        1.94259  -0.00583   0.00000  -0.03197  -0.03253   1.91005
    A9        1.94513  -0.00693   0.00000  -0.03795  -0.03857   1.90656
   A10        1.88188   0.00626   0.00000   0.03411   0.03356   1.91545
   A11        1.87493   0.00685   0.00000   0.03754   0.03689   1.91182
   A12        1.87534   0.00688   0.00000   0.03829   0.03770   1.91304
   A13        1.96070  -0.00662   0.00000  -0.03663  -0.03728   1.92342
   A14        1.94041  -0.00532   0.00000  -0.03009  -0.03071   1.90970
   A15        1.93734  -0.00760   0.00000  -0.04077  -0.04141   1.89593
   A16        1.88382   0.00624   0.00000   0.03245   0.03183   1.91564
   A17        1.85915   0.00783   0.00000   0.04457   0.04389   1.90304
   A18        1.87839   0.00688   0.00000   0.03821   0.03759   1.91598
   A19        1.95057  -0.00527   0.00000  -0.02943  -0.03001   1.92056
   A20        1.93939  -0.00431   0.00000  -0.02820  -0.02894   1.91045
   A21        1.93711  -0.00970   0.00000  -0.04845  -0.04899   1.88812
   A22        1.90215   0.00380   0.00000   0.01203   0.01124   1.91339
   A23        1.85367   0.00922   0.00000   0.05920   0.05883   1.91250
   A24        1.87747   0.00748   0.00000   0.04190   0.04120   1.91867
   A25        2.00348   0.00476   0.00000   0.01432   0.01473   2.01821
   A26        1.92085  -0.00641   0.00000  -0.05692  -0.05719   1.86366
   A27        1.89502  -0.00677   0.00000  -0.04999  -0.05043   1.84459
   A28        1.88370   0.00154   0.00000   0.01946   0.01919   1.90289
   A29        1.91146   0.00355   0.00000   0.04197   0.04192   1.95338
   A30        1.84261   0.00336   0.00000   0.03396   0.03135   1.87396
   A31        1.88620   0.00522   0.00000   0.04270   0.04293   1.92912
   A32        1.97589  -0.00852   0.00000  -0.03104  -0.03242   1.94346
   A33        1.95346   0.00004   0.00000  -0.02510  -0.02555   1.92792
   A34        1.89151   0.00569   0.00000   0.04786   0.04796   1.93948
   A35        1.85652  -0.00420   0.00000  -0.02619  -0.02568   1.83084
   A36        1.89553   0.00222   0.00000  -0.00519  -0.00602   1.88951
   A37        1.96078  -0.00418   0.00000  -0.02297  -0.02297   1.93781
   A38        2.00423   0.00747   0.00000   0.03313   0.03297   2.03720
   A39        1.91716  -0.00543   0.00000  -0.03518  -0.03494   1.88222
   A40        1.90432   0.00194   0.00000   0.02419   0.02410   1.92841
   A41        1.87204  -0.00038   0.00000  -0.00167  -0.00139   1.87065
   A42        1.88748  -0.00471   0.00000  -0.01786  -0.01855   1.86893
   A43        1.87416   0.00073   0.00000  -0.00510  -0.00498   1.86918
   A44        2.20946  -0.00765   0.00000  -0.02774  -0.02844   2.18101
   A45        1.95061  -0.00036   0.00000  -0.00089  -0.00162   1.94898
   A46        2.12290   0.00804   0.00000   0.03003   0.02926   2.15216
   A47        1.91287  -0.00656   0.00000  -0.03606  -0.03606   1.87681
    D1       -3.12148  -0.00028   0.00000  -0.00184  -0.00186  -3.12334
    D2        1.06317  -0.00022   0.00000  -0.00096  -0.00094   1.06223
    D3       -1.03005  -0.00031   0.00000  -0.00224  -0.00222  -1.03227
    D4       -1.06423   0.00077   0.00000   0.00878   0.00875  -1.05548
    D5        3.12042   0.00084   0.00000   0.00966   0.00967   3.13009
    D6        1.02720   0.00074   0.00000   0.00838   0.00839   1.03559
    D7        1.07101  -0.00041   0.00000  -0.00270  -0.00273   1.06828
    D8       -1.02753  -0.00034   0.00000  -0.00182  -0.00181  -1.02934
    D9       -3.12075  -0.00044   0.00000  -0.00310  -0.00308  -3.12383
   D10        3.06998   0.00036   0.00000   0.00624   0.00626   3.07624
   D11       -1.09995  -0.00004   0.00000   0.00092   0.00092  -1.09902
   D12        0.99044   0.00004   0.00000   0.00199   0.00198   0.99242
   D13        1.02394  -0.00050   0.00000  -0.00507  -0.00507   1.01888
   D14        3.13720  -0.00090   0.00000  -0.01038  -0.01040   3.12679
   D15       -1.05560  -0.00082   0.00000  -0.00932  -0.00935  -1.06495
   D16       -1.16243   0.00093   0.00000   0.01159   0.01161  -1.15082
   D17        0.95082   0.00054   0.00000   0.00627   0.00628   0.95710
   D18        3.04122   0.00062   0.00000   0.00734   0.00733   3.04855
   D19       -3.02935  -0.00147   0.00000  -0.02734  -0.02724  -3.05659
   D20        1.12482   0.00042   0.00000  -0.00201  -0.00204   1.12278
   D21       -0.96358   0.00029   0.00000  -0.00402  -0.00412  -0.96770
   D22       -0.98610  -0.00109   0.00000  -0.01728  -0.01716  -1.00325
   D23       -3.11512   0.00081   0.00000   0.00805   0.00804  -3.10707
   D24        1.07967   0.00068   0.00000   0.00605   0.00597   1.08563
   D25        1.17963  -0.00166   0.00000  -0.02733  -0.02722   1.15241
   D26       -0.94938   0.00023   0.00000  -0.00200  -0.00202  -0.95140
   D27       -3.03779   0.00010   0.00000  -0.00401  -0.00410  -3.04188
   D28       -3.06670   0.00078   0.00000   0.01524   0.01513  -3.05157
   D29       -0.93779   0.00128   0.00000   0.00716   0.00667  -0.93113
   D30        1.07110  -0.00198   0.00000  -0.01115  -0.01055   1.06055
   D31        1.16139   0.00076   0.00000   0.01005   0.00996   1.17136
   D32       -2.99288   0.00126   0.00000   0.00196   0.00150  -2.99138
   D33       -0.98399  -0.00200   0.00000  -0.01635  -0.01572  -0.99971
   D34       -0.98584   0.00089   0.00000   0.01635   0.01621  -0.96963
   D35        1.14307   0.00140   0.00000   0.00827   0.00775   1.15082
   D36       -3.13122  -0.00186   0.00000  -0.01005  -0.00947  -3.14069
   D37        1.36669  -0.00321   0.00000  -0.05559  -0.05568   1.31101
   D38       -2.82128   0.00217   0.00000   0.01427   0.01378  -2.80749
   D39       -0.67192  -0.00133   0.00000  -0.03570  -0.03544  -0.70736
   D40       -0.78225   0.00066   0.00000  -0.00636  -0.00599  -0.78825
   D41        1.31297   0.00604   0.00000   0.06350   0.06347   1.37644
   D42       -2.82086   0.00254   0.00000   0.01353   0.01424  -2.80662
   D43       -2.77997  -0.00596   0.00000  -0.07857  -0.07879  -2.85877
   D44       -0.68475  -0.00058   0.00000  -0.00871  -0.00933  -0.69408
   D45        1.46461  -0.00408   0.00000  -0.05867  -0.05856   1.40605
   D46        1.56270  -0.00098   0.00000   0.02442   0.02550   1.58820
   D47       -0.58474   0.00276   0.00000   0.00719   0.00596  -0.57877
   D48       -2.62005  -0.00047   0.00000   0.00313   0.00327  -2.61678
   D49        1.07478  -0.00277   0.00000  -0.01762  -0.01714   1.05765
   D50       -3.09705  -0.00215   0.00000  -0.02326  -0.02312  -3.12017
   D51       -1.04696  -0.00327   0.00000  -0.03558  -0.03567  -1.08264
   D52       -3.11621   0.00233   0.00000   0.04932   0.04949  -3.06672
   D53       -1.00487   0.00295   0.00000   0.04368   0.04351  -0.96135
   D54        1.04522   0.00183   0.00000   0.03136   0.03096   1.07618
   D55       -1.10623   0.00155   0.00000   0.04100   0.04126  -1.06497
   D56        1.00512   0.00217   0.00000   0.03535   0.03528   1.04040
   D57        3.05521   0.00105   0.00000   0.02304   0.02272   3.07793
   D58       -2.54939  -0.00291   0.00000  -0.04460  -0.04411  -2.59349
   D59        0.56964  -0.00066   0.00000   0.02605   0.02588   0.59552
   D60        1.59790  -0.00059   0.00000  -0.02005  -0.01970   1.57820
   D61       -1.56625   0.00166   0.00000   0.05060   0.05028  -1.51597
   D62       -0.41850   0.00112   0.00000  -0.00430  -0.00414  -0.42263
   D63        2.70053   0.00336   0.00000   0.06635   0.06584   2.76638
   D64       -3.13561  -0.00304   0.00000  -0.07865  -0.07964   3.06793
   D65       -0.01529  -0.00115   0.00000  -0.01286  -0.01187  -0.02716
         Item               Value     Threshold  Converged?
 Maximum Force            0.016192     0.000450     NO 
 RMS     Force            0.006364     0.000300     NO 
 Maximum Displacement     0.172545     0.001800     NO 
 RMS     Displacement     0.048754     0.001200     NO 
 Predicted change in Energy=-1.233171D-02
 GradGradGradGradGradGradGradGradGradGradGradGradGradGradGradGradGradGrad

                          Input orientation:                          
 ---------------------------------------------------------------------
 Center     Atomic      Atomic             Coordinates (Angstroms)
 Number     Number       Type             X           Y           Z
 ---------------------------------------------------------------------
      1          7           0        0.444492    1.000845    1.134883
      2          6           0        0.469926    2.461726    0.776679
      3          6           0        1.859593    0.500918    1.152148
      4          6           0       -0.151413    0.858139    2.506341
      5          6           0       -0.370316    0.281056    0.076927
      6          6           0       -0.619656   -1.218442    0.332894
      7          8           0       -1.605363   -1.395113    1.345291
      8          6           0       -1.016809   -1.948765   -0.960692
      9          6           0       -0.006985   -1.928330   -2.093537
     10          8           0       -0.283520   -1.939381   -3.262529
     11          8           0        1.266958   -1.955328   -1.629297
     12          1           0       -0.549325    2.849862    0.776793
     13          1           0        0.911137    2.585121   -0.213155
     14          1           0        1.065965    3.001877    1.512959
     15          1           0        1.887036   -0.539051    1.472622
     16          1           0        2.287666    0.590236    0.153738
     17          1           0        2.434065    1.105214    1.855463
     18          1           0       -0.103710   -0.180032    2.827280
     19          1           0       -1.188811    1.187690    2.487132
     20          1           0        0.424188    1.480596    3.194352
     21          1           0       -1.331541    0.796349    0.014443
[...]
    14  H    0.004073  -0.009552   0.002019  -0.004474  -0.001655   0.000008
    15  H   -0.000266   0.002683  -0.001031   0.002943   0.001076  -0.003343
    16  H   -0.003017   0.001893   0.002340  -0.012334  -0.012925   0.001193
    17  H    0.002380  -0.010042  -0.001271   0.004666   0.002830   0.000098
    18  H   -0.028749  -0.032565   0.003793   0.000696  -0.003356  -0.000245
    19  H    0.495375  -0.030110  -0.008209   0.004447  -0.000128   0.000637
    20  H   -0.030110   0.515568  -0.002406  -0.003324   0.002243   0.000203
    21  H   -0.008209  -0.002406   0.467655  -0.037063   0.002756   0.007663
    22  H    0.004447  -0.003324  -0.037063   0.498083  -0.000579  -0.005957
    23  H   -0.000128   0.002243   0.002756  -0.000579   0.614647  -0.011589
    24  H    0.000637   0.000203   0.007663  -0.005957  -0.011589   0.492055
    25  H   -0.000315   0.000379   0.001040  -0.001994  -0.019261   0.012687
    26  H    0.001096   0.000320   0.001984  -0.000191   0.009023  -0.000610
    27  H   -0.000037  -0.000009  -0.000157   0.000723  -0.002573  -0.000027
              25         26         27
     1  N   -0.002369  -0.008106   0.000510
     2  C   -0.001567  -0.003351   0.000282
     3  C   -0.001831  -0.006194  -0.000608
     4  C    0.001577  -0.000802   0.000036
     5  C    0.023870  -0.119312   0.006412
     6  C   -0.071540   0.015665  -0.009019
     7  O   -0.012239  -0.002357   0.000111
     8  C    0.439134   0.571931  -0.037378
     9  C   -0.050872  -0.102758   0.053931
    10  O    0.007732  -0.006814  -0.004214
    11  O   -0.005919  -0.010559   0.255720
    12  H    0.000267   0.000075   0.000035
    13  H   -0.000419   0.000129  -0.000140
    14  H   -0.000089   0.000103   0.000008
    15  H    0.001462   0.000322   0.000043
    16  H    0.000359   0.000398   0.000108
    17  H   -0.000176  -0.000506  -0.000024
    18  H    0.000380  -0.002219   0.000047
    19  H   -0.000315   0.001096  -0.000037
    20  H    0.000379   0.000320  -0.000009
    21  H    0.001040   0.001984  -0.000157
    22  H   -0.001994  -0.000191   0.000723
    23  H   -0.019261   0.009023  -0.002573
    24  H    0.012687  -0.000610  -0.000027
    25  H    0.485205  -0.014674   0.001215
    26  H   -0.014674   0.424632  -0.000010
    27  H    0.001215  -0.000010   0.425977
 Mulliken charges:
               1
     1  N   -0.238710
     2  C   -0.241534
     3  C   -0.279484
     4  C   -0.258571
     5  C   -0.679731
     6  C   -0.039772
     7  O   -0.206117
     8  C   -0.345294
     9  C   -0.039941
    10  O   -0.257490
    11  O   -0.132934
    12  H    0.202994
    13  H    0.209549
    14  H    0.207464
    15  H    0.231476
    16  H    0.224418
    17  H    0.224938
    18  H    0.240985
    19  H    0.204841
    20  H    0.197695
    21  H    0.271122
    22  H    0.226364
    23  H    0.229054
    24  H    0.278890
    25  H    0.207962
    26  H    0.252786
    27  H    0.309039
 Sum of Mulliken charges =   1.00000
 Mulliken charges with hydrogens summed into heavy atoms:
               1
     1  N   -0.238710
     2  C    0.378473
     3  C    0.401349
     4  C    0.384950
     5  C   -0.182245
     6  C    0.189282
     7  O    0.072773
     8  C    0.115454
     9  C   -0.039941
    10  O   -0.257490
    11  O    0.176105
 Electronic spatial extent (au):  <R**2>=           2265.2354
 Charge=              1.0000 electrons
 Dipole moment (field-independent basis, Debye):
    X=             -4.9742    Y=             -0.1602    Z=              0.0027  Tot=              4.9768
 Quadrupole moment (field-independent basis, Debye-Ang):
   XX=            -31.9287   YY=            -58.0553   ZZ=            -59.6305
   XY=              5.1221   XZ=             -0.5097   YZ=             -4.2352
 Traceless Quadrupole moment (field-independent basis, Debye-Ang):
   XX=             17.9428   YY=             -8.1838   ZZ=             -9.7590
   XY=              5.1221   XZ=             -0.5097   YZ=             -4.2352
 Octapole moment (field-independent basis, Debye-Ang**2):
  XXX=             -1.6469  YYY=             13.8893  ZZZ=             -1.1630  XYY=              1.6309
  XXY=            -30.9596  XXZ=             -1.0730  XZZ=             -8.6131  YZZ=              0.8514
  YYZ=             -4.4297  XYZ=             -4.7927
 Hexadecapole moment (field-independent basis, Debye-Ang**3):
 XXXX=          -1521.7480 YYYY=           -486.7285 ZZZZ=           -237.2386 XXXY=           -124.4490
 XXXZ=            -21.5681 YYYX=             31.2552 YYYZ=            -34.1945 ZZZX=              1.9806
 ZZZY=             -0.6752 XXYY=           -358.3029 XXZZ=           -355.1383 YYZZ=           -129.8333
 XXYZ=             -7.5959 YYXZ=             -3.8289 ZZXY=              5.4314
 N-N= 6.969851704939D+02 E-N=-2.680444536291D+03  KE= 5.545029973760D+02

 **********************************************************************

            Electrostatic Properties Using The SCF Density

 **********************************************************************

       Atomic Center    1 is at  -1.929227 -0.343763  0.059556
       Atomic Center    2 is at  -2.427972 -1.625687  0.679764
       Atomic Center    3 is at  -2.023279 -0.463807 -1.438702
       Atomic Center    4 is at  -2.813487  0.789658  0.529433
       Atomic Center    5 is at  -0.480832 -0.151395  0.518552
       Atomic Center    6 is at   0.366737  0.847647 -0.266069
       Atomic Center    7 is at  -0.249898  2.125622 -0.142571
       Atomic Center    8 is at   1.803341  0.861011  0.282992
       Atomic Center    9 is at   2.576342 -0.410350 -0.015666
       Atomic Center   10 is at   2.089262 -1.423803 -0.460727
       Atomic Center   11 is at   3.873027 -0.270983  0.279881
       Atomic Center   12 is at  -2.302887 -1.566712  1.759784
       Atomic Center   13 is at  -1.853279 -2.460472  0.282343
       Atomic Center   14 is at  -3.482041 -1.746416  0.435394
       Atomic Center   15 is at  -1.781675  0.495920 -1.888425
       Atomic Center   16 is at  -1.330767 -1.232364 -1.778964
       Atomic Center   17 is at  -3.043784 -0.742745 -1.696211
       Atomic Center   18 is at  -2.429883  1.722679  0.129600
       Atomic Center   19 is at  -2.793439  0.814489  1.617709
       Atomic Center   20 is at  -3.827331  0.596972  0.181523
       Atomic Center   21 is at  -0.537265  0.147012  1.566778
       Atomic Center   22 is at  -0.004116 -1.126818  0.439717
       Atomic Center   23 is at   0.412007  0.545994 -1.318133
       Atomic Center   24 is at   0.278872  2.796790 -0.589824
       Atomic Center   25 is at   2.350577  1.698285 -0.160740
       Atomic Center   26 is at   1.813563  1.038962  1.363575
       Atomic Center   27 is at   4.331803 -1.104391  0.084501
 -----------------------------------------------------------------

              Electrostatic Properties (Atomic Units)

 -----------------------------------------------------------------
    Center     Electric         -------- Electric Field --------
               Potential          X             Y             Z
 -----------------------------------------------------------------
    1 Atom    -18.105919      0.000330      0.001168      0.000406
    2 Atom    -14.567176     -0.002926     -0.007467      0.003342
    3 Atom    -14.568368     -0.000721     -0.000704     -0.009122
    4 Atom    -14.577465     -0.004733      0.008287      0.002195
    5 Atom    -14.564550      0.009852      0.001502      0.001935
    6 Atom    -14.548020      0.005615     -0.007813     -0.001569
    7 Atom    -22.210637     -0.037659      0.008177      0.022588
    8 Atom    -14.613198     -0.001307      0.000384     -0.000187
    9 Atom    -14.505781     -0.008409      0.010160      0.002008
   10 Atom    -22.249534     -0.019174     -0.043676     -0.019343
   11 Atom    -22.196031      0.022775      0.037307      0.016721
   12 Atom     -0.929363      0.002058      0.000609      0.018772
   13 Atom     -0.930115      0.009761     -0.014814     -0.006684
   14 Atom     -0.929453     -0.018357     -0.002512     -0.004002
   15 Atom     -0.932069      0.004074      0.016721     -0.008394
   16 Atom     -0.930734      0.012041     -0.013313     -0.006277
   17 Atom     -0.930226     -0.017578     -0.004786     -0.004928
   18 Atom     -0.943728      0.006505      0.016840     -0.006872
   19 Atom     -0.937047      0.000170      0.000854      0.018806
   20 Atom     -0.936782     -0.017684     -0.002890     -0.005863
   21 Atom     -0.932947     -0.000655      0.005067      0.018182
   22 Atom     -0.935651      0.008451     -0.017011     -0.001107
   23 Atom     -0.961144      0.000756     -0.004886     -0.017882
   24 Atom     -0.846214      0.012942      0.018782     -0.011490
   25 Atom     -0.952478      0.009296      0.014058     -0.007186
   26 Atom     -0.952789      0.000286      0.003330      0.018085
   27 Atom     -0.835066      0.013071     -0.020766     -0.004571
 -----------------------------------------------------------------
 -----------------------------------------------------
    Center         ---- Electric Field Gradient ----
                     XX            YY            ZZ
 -----------------------------------------------------
    1 Atom     -812.785257   -812.769275   -812.793024
    2 Atom     -500.415129   -500.822652   -500.453063
    3 Atom     -500.297871   -500.288740   -500.947849
    4 Atom     -500.594718   -500.677810   -500.418881
    5 Atom     -501.034371   -500.393593   -500.550895
    6 Atom     -500.338605   -500.675365   -500.149346
    7 Atom    -1236.130449  -1238.276656  -1235.315224
    8 Atom     -500.452990   -500.412734   -500.330760
    9 Atom     -501.253399   -500.968331   -501.587420
   10 Atom    -1236.835269  -1238.189057  -1238.787452
   11 Atom    -1238.220058  -1236.972375  -1236.068675
   12 Atom       -1.677473     -1.690843     -2.116033
   13 Atom       -1.804905     -1.941411     -1.737809
   14 Atom       -2.096451     -1.692667     -1.699752
   15 Atom       -1.695998     -2.030945     -1.767088
   16 Atom       -1.851603     -1.893291     -1.730055
   17 Atom       -2.073305     -1.697994     -1.716471
   18 Atom       -1.716629     -1.996002     -1.726326
   19 Atom       -1.680752     -1.684768     -2.128063
   20 Atom       -2.068050     -1.706268     -1.724571
   21 Atom       -1.711592     -1.712516     -2.093351
   22 Atom       -1.771543     -2.037532     -1.675568
   23 Atom       -1.730676     -1.763293     -2.121415
   24 Atom       -1.726267     -1.869817     -1.640400
   25 Atom       -1.772917     -1.921214     -1.730855
   26 Atom       -1.659860     -1.662633     -2.081704
   27 Atom       -1.648399     -1.947040     -1.486730
 -----------------------------------------------------
 -----------------------------------------------------
    Center         ---- Electric Field Gradient ----
                     XY            XZ            YZ
 -----------------------------------------------------
    1 Atom       -0.012854     -0.006836      0.010922
    2 Atom       -0.192981      0.089433      0.231533
    3 Atom       -0.002595     -0.055198     -0.061969
    4 Atom        0.331019      0.116975     -0.187030
    5 Atom       -0.083258     -0.214985      0.016062
    6 Atom        0.156703      0.032740      0.003929
    7 Atom        0.170459      0.823133      0.572849
    8 Atom        0.047413     -0.031546     -0.022359
    9 Atom       -0.069961      0.057274      0.232602
   10 Atom       -0.923910      0.041574      0.042308
   11 Atom        0.808625     -0.155209     -0.191000
   12 Atom       -0.012797     -0.052669     -0.026334
   13 Atom        0.175727      0.097588     -0.119400
   14 Atom       -0.045451     -0.101650      0.000965
   15 Atom       -0.092345      0.039617      0.158336
   16 Atom        0.205387      0.082009     -0.094146
   17 Atom       -0.110181     -0.090925     -0.026285
   18 Atom       -0.121702      0.066162      0.138838
   19 Atom        0.014109     -0.011622     -0.006369
   20 Atom       -0.071912     -0.133872     -0.038465
   21 Atom        0.001976      0.024067     -0.117566
   22 Atom        0.153686      0.003337     -0.028586
   23 Atom        0.003864      0.012867     -0.108735
   24 Atom       -0.246059      0.191994      0.223888
   25 Atom       -0.159913      0.086960      0.143272
   26 Atom        0.002329     -0.000296     -0.067963
   27 Atom        0.263191      0.052861     -0.115646
 -----------------------------------------------------
 -----------------------------------------------------
    Center         ---- Electric Field Gradient ----
                   ----       Eigenvalues       ----
 -----------------------------------------------------
    1 Atom     -812.797755   -812.792330   -812.757472
    2 Atom     -501.010116   -500.343552   -500.337176
    3 Atom     -500.958239   -500.293845   -500.282376
    4 Atom     -501.045661   -500.362557   -500.283190
    5 Atom     -501.123294   -500.488427   -500.367137
    6 Atom     -500.737120   -500.284492   -500.141704
    7 Atom    -1238.383738  -1236.627858  -1234.710733
    8 Atom     -500.485738   -500.399622   -500.311123
    9 Atom     -501.678915   -501.245987   -500.884249
   10 Atom    -1238.808720  -1238.636364  -1236.366693
   11 Atom    -1238.618717  -1236.670312  -1235.972079
   12 Atom       -2.124036     -1.693256     -1.667057
   13 Atom       -2.123023     -1.693370     -1.667732
   14 Atom       -2.125449     -1.694952     -1.668469
   15 Atom       -2.128438     -1.693416     -1.672177
   16 Atom       -2.118961     -1.690178     -1.665810
   17 Atom       -2.125174     -1.694640     -1.667958
   18 Atom       -2.103838     -1.680319     -1.654799
   19 Atom       -2.128446     -1.696993     -1.668143
   20 Atom       -2.129396     -1.698945     -1.670548
   21 Atom       -2.128068     -1.710929     -1.678462
   22 Atom       -2.109508     -1.703891     -1.671245
   23 Atom       -2.152272     -1.732888     -1.730224
   24 Atom       -2.207296     -1.546566     -1.482622
   25 Atom       -2.099496     -1.671511     -1.653978
   26 Atom       -2.092450     -1.660499     -1.651247
   27 Atom       -2.125399     -1.499136     -1.457635
 -----------------------------------------------------
 -----------------------------------------------------
    Center         ---- Electric Field Gradient ----
                       ( tensor representation )
                   3XX-RR        3YY-RR        3ZZ-RR
 -----------------------------------------------------
    1 Atom       -0.002738      0.013243     -0.010505
    2 Atom        0.148486     -0.259037      0.110552
    3 Atom        0.213615      0.222747     -0.436362
    4 Atom       -0.030915     -0.114007      0.144922
    5 Atom       -0.374752      0.266027      0.108725
    6 Atom        0.049167     -0.287593      0.238426
    7 Atom        0.443660     -1.702546      1.258886
    8 Atom       -0.054162     -0.013906      0.068068
    9 Atom        0.016318      0.301386     -0.317704
   10 Atom        1.101991     -0.251798     -0.850193
   11 Atom       -1.133022      0.114661      1.018361
   12 Atom        0.150644      0.137273     -0.287917
   13 Atom        0.023137     -0.113369      0.090233
   14 Atom       -0.266827      0.136957      0.129871
   15 Atom        0.135346     -0.199602      0.064256
   16 Atom       -0.026620     -0.068308      0.094928
   17 Atom       -0.244048      0.131263      0.112786
   18 Atom        0.096356     -0.183016      0.086660
   19 Atom        0.150442      0.146426     -0.296869
   20 Atom       -0.235087      0.126695      0.108392
   21 Atom        0.127561      0.126637     -0.254198
   22 Atom        0.056671     -0.209318      0.152647
   23 Atom        0.141119      0.108501     -0.249620
   24 Atom        0.019228     -0.124323      0.105095
   25 Atom        0.035412     -0.112886      0.077474
   26 Atom        0.141539      0.138766     -0.280305
   27 Atom        0.045658     -0.252984      0.207326
 -----------------------------------------------------
 -----------------------------------------------------
    Center         ---- Electric Field Gradient ----
                       ( tensor representation )
                   ----       Eigenvalues       ----
 -----------------------------------------------------
    1 Atom       -0.015236     -0.009811      0.025047
    2 Atom       -0.446501      0.220063      0.226438
    3 Atom       -0.446752      0.217642      0.229111
    4 Atom       -0.481858      0.201246      0.280612
    5 Atom       -0.463675      0.171193      0.292482
    6 Atom       -0.349348      0.103280      0.246068
    7 Atom       -1.809628     -0.053748      1.863376
    8 Atom       -0.086911     -0.000794      0.087705
    9 Atom       -0.409198      0.023730      0.385468
   10 Atom       -0.871461     -0.699105      1.570566
   11 Atom       -1.531681      0.416724      1.114957
   12 Atom       -0.295920      0.134861      0.161059
   13 Atom       -0.294981      0.134672      0.160309
   14 Atom       -0.295825      0.134671      0.161154
   15 Atom       -0.297094      0.137928      0.159167
   16 Atom       -0.293978      0.134805      0.159173
   17 Atom       -0.295917      0.134617      0.161299
   18 Atom       -0.290853      0.132666      0.158187
   19 Atom       -0.297252      0.134201      0.163051
   20 Atom       -0.296433      0.134018      0.162415
   21 Atom       -0.288915      0.128224      0.160691
   22 Atom       -0.281293      0.124324      0.156970
   23 Atom       -0.280477      0.138906      0.141571
   24 Atom       -0.461802      0.198929      0.262873
   25 Atom       -0.291168      0.136817      0.154350
   26 Atom       -0.291051      0.140900      0.150151
   27 Atom       -0.431342      0.194921      0.236422
 -----------------------------------------------------

 Test job not archived.
 1|1|UNPC-NP-ALMACH|FOpt|RB3LYP|6-311++G(d,p)|C7H16N1O3(1+)|HERA|07-Aug
 -2018|0||# RB3LYP/6-311++G** Opt Test prop=EFG||C7NH16O3||1,1|N,0.3482
 321235,1.1034169544,1.2268651962|C,0.5539821405,2.4860564693,0.6587907
 615|C,1.6788343009,0.5665173441,1.684324178|C,-0.585730985,1.208131035
 9,2.4118087672|C,-0.2537434171,0.2407445226,0.1137823631|C,-0.19679059
 37,-1.2733535165,0.3044469302|O,-0.9381930018,-1.5873483299,1.47936859
 71|C,-0.7774603205,-1.9794238334,-0.9323898358|C,0.0953524286,-1.85068
 94776,-2.1671811713|O,1.0511677864,-1.1158422585,-2.2611444211|O,-0.32
 90044445,-2.6547981798,-3.1477396689|H,-0.3948676258,2.8521381032,0.26
 99005382|H,1.2909855533,2.4362435864,-0.1408515305|H,0.9063946029,3.14
 23720604,1.4527726983|H,1.522817914,-0.3754649311,2.2039642964|H,2.323
 0732438,0.4247594954,0.8177842547|H,2.1245635533,1.2907769239,2.364266
 7001|H,-0.7804223925,0.2113808113,2.7940776047|H,-1.5149942279,1.66762
 93403,2.0790996287|H,-0.1108514775,1.8352235868,3.1649976514|H,-1.2901
 90097,0.5667441116,0.0112619851|H,0.2987027031,0.4833313433,-0.7922415
 24|H,0.8454945752,-1.5917692582,0.4146022757|H,-0.9638613408,-2.542040
 2995,1.6135425969|H,-0.8966652466,-3.0453455284,-0.7156109902|H,-1.781
 6600644,-1.609718247,-1.1654833483|H,0.2465553095,-2.5387258291,-3.921
 3515332||Version=EM64W-G09RevD.01|State=1-A|HF=-556.7510219|RMSD=4.181
 e-009|RMSF=5.547e-006|Dipole=0.1857469,1.3246973,1.4298817|Quadrupole=
 -9.3627425,7.0354047,2.3273378,1.9186063,2.9838996,8.6312629|PG=C01 [X
 (C7H16N1O3)]||@


 CHILDREN YOU ARE VERY LITTLE,
 AND YOUR BONES ARE VERY BRITTLE;
 IF YOU WOULD GROW GREAT AND STATELY
 YOU MUST TRY TO WALK SEDATELY.
 YOU MUST STILL BE BRIGHT AND QUIET,
 AND CONTENT WITH SIMPLE DIET;
 AND REMAIN, THROUGH ALL BEWILD'RING
 INNOCENT AND HONEST CHILDREN.
     -- A CHILD'S GARDEN OF VERSE,
        ROBERT LOUIS STEVENSON
 Job cpu time:       0 days  2 hours 51 minutes 28.0 seconds.
 File lengths (MBytes):  RWF=     57 Int=      0 D2E=      0 Chk=     10 Scr=      1
 Normal termination of Gaussian 09 at Tue Aug 07 02:16:18 2018.
