 Entering Link 1 = C:\G09W\l1.exe PID=     21216.
  
 Copyright (c) 1988,1990,1992,1993,1995,1998,2003,2009,2013,
            Gaussian, Inc.  All Rights Reserved.
  
 This is part of the Gaussian(R) 09 program.  It is based on
 the Gaussian(R) 03 system (copyright 2003, Gaussian, Inc.),
 the Gaussian(R) 98 system (copyright 1998, Gaussian, Inc.),
 the Gaussian(R) 94 system (copyright 1995, Gaussian, Inc.),
 the Gaussian 92(TM) system (copyright 1992, Gaussian, Inc.),
 the Gaussian 90(TM) system (copyright 1990, Gaussian, Inc.),
 the Gaussian 88(TM) system (copyright 1988, Gaussian, Inc.),
 the Gaussian 86(TM) system (copyright 1986, Carnegie Mellon
 University), and the Gaussian 82(TM) system (copyright 1983,
 Carnegie Mellon University). Gaussian is a federally registered
 trademark of Gaussian, Inc.
  
 This software contains proprietary and confidential information,
 including trade secrets, belonging to Gaussian, Inc.
  
 This software is provided under written license and may be
 used, copied, transmitted, or stored only in accord with that
 written license.
  
 The following legend is applicable only to US Government
 contracts under FAR:
  
                    RESTRICTED RIGHTS LEGEND
  
 Use, reproduction and disclosure by the US Government is
 subject to restrictions as set forth in subparagraphs (a)
 and (c) of the Commercial Computer Software - Restricted
 Rights clause in FAR 52.227-19.
  
 Gaussian, Inc.
 340 Quinnipiac St., Bldg. 40, Wallingford CT 06492
  
  
 ---------------------------------------------------------------
 Warning -- This program may not be used in any manner that
 competes with the business of Gaussian, Inc. or will provide
 assistance to any competitor of Gaussian, Inc.  The licensee
 of this program is prohibited from giving any competitor of
 Gaussian, Inc. access to this program.  By using this program,
 the user acknowledges that Gaussian, Inc. is engaged in the
 business of creating and licensing software in the field of
 computational chemistry and represents and warrants to the
 licensee that it is not a competitor of Gaussian, Inc. and that
 it will not use this program in any manner prohibited above.
 ---------------------------------------------------------------
  

 Cite this work as:
 Gaussian 09, Revision D.01,
 M. J. Frisch, G. W. Trucks, H. B. Schlegel, G. E. Scuseria, 
 M. A. Robb, J. R. Cheeseman, G. Scalmani, V. Barone, B. Mennucci, 
 G. A. Petersson, H. Nakatsuji, M. Caricato, X. Li, H. P. Hratchian, 
 A. F. Izmaylov, J. Bloino, G. Zheng, J. L. Sonnenberg, M. Hada, 
 M. Ehara, K. Toyota, R. Fukuda, J. Hasegawa, M. Ishida, T. Nakajima, 
 Y. Honda, O. Kitao, H. Nakai, T. Vreven, J. A. Montgomery, Jr., 
 J. E. Peralta, F. Ogliaro, M. Bearpark, J. J. Heyd, E. Brothers, 
 K. N. Kudin, V. N. Staroverov, T. Keith, R. Kobayashi, J. Normand, 
 K. Raghavachari, A. Rendell, J. C. Burant, S. S. Iyengar, J. Tomasi, 
 M. Cossi, N. Rega, J. M. Millam, M. Klene, J. E. Knox, J. B. Cross, 
 V. Bakken, C. Adamo, J. Jaramillo, R. Gomperts, R. E. Stratmann, 
 O. Yazyev, A. J. Austin, R. Cammi, C. Pomelli, J. W. Ochterski, 
 R. L. Martin, K. Morokuma, V. G. Zakrzewski, G. A. Voth, 
 P. Salvador, J. J. Dannenberg, S. Dapprich, A. D. Daniels, 
 O. Farkas, J. B. Foresman, J. V. Ortiz, J. Cioslowski, 
 and D. J. Fox, Gaussian, Inc., Wallingford CT, 2013.
 
 ******************************************
 Gaussian 09:  EM64W-G09RevD.01 13-Apr-2013
                15-Aug-2018 
 ******************************************
 %Chk=Anth_370.chk
 %Mem=64GB
 %NProcShared=20
 Will use up to   20 processors via shared memory.
 -------------------------------------
 # RB3LYP/6-311++G** Opt Test prop=EFG
 -------------------------------------
 1/14=-1,18=20,19=15,26=3,38=1/1,3;
 2/9=110,12=2,17=6,18=5,40=1/2;
 3/5=4,6=6,7=1111,11=2,16=1,25=1,30=1,71=1,74=-5,116=1/1,2,3;
 4//1;
 5/5=2,38=5/2;
 6/7=2,8=2,9=2,10=2,14=1,28=1/1,2;
 7//1,2,3,16;
 1/14=-1,18=20,19=15,26=3/3(2);
 2/9=110/2;
 99//99;
 2/9=110/2;
 3/5=4,6=6,7=1111,11=2,16=1,25=1,30=1,71=1,74=-5,116=1/1,2,3;
 4/5=5,16=3,69=1/1;
 5/5=2,38=5/2;
 7//1,2,3,16;
 1/14=-1,18=20,19=15,26=3/3(-5);
 2/9=110/2;
 6/7=2,8=2,9=2,10=2,14=1,19=2,28=1/1,2;
 99/9=1/99;
 --------
 C11NH18O
 --------
 Symbolic Z-matrix:
 Charge =  1 Multiplicity = 1
 C                     1.15651   1.73887   0.47096 
 C                     1.64935   0.49298   0.5547 
 C                     0.84109  -0.56108   0.74994 
 C                    -0.49501  -0.42742   0.87027 
 C                    -0.97221   0.83138   0.78784 
 C                    -0.17144   1.89031   0.59378 
 N                    -1.40299  -1.55021   1.07445 
 C                     2.05023   2.93633   0.2561 
 C                    -0.70985  -2.90814   1.15009 
 C                    -2.11518  -1.37552   2.4132 
 C                    -2.4596   -1.6089   -0.03023 
 C                    -1.84073  -1.7003   -1.42855 
 O                    -2.89105  -1.71805  -2.37774 
 H                     2.73605   0.32885   0.4615 
 H                     1.33506  -1.54253   0.80608 
 H                    -2.05104   1.03642   0.87621 
 H                    -0.60999   2.90053   0.53196 
 H                     3.13029   2.68496   0.35016 
 H                     1.88564   3.35663  -0.7622 
 H                     1.83025   3.73059   1.00527 
 H                    -1.44816  -3.73059   1.28727 
 H                    -0.13761  -3.1524    0.22902 
 H                    -0.01514  -2.96611   2.01899 
 H                    -2.79357  -2.23263   2.62689 
 H                    -2.7469   -0.46058   2.44514 
 H                    -1.38217  -1.30647   3.2496 
 H                    -3.13029  -2.48643   0.12894 
 H                    -3.12653  -0.71662   0.00466 
 H                    -1.19431  -0.82831  -1.67064 
 H                    -1.26369  -2.6369   -1.58477 
 H                    -2.56252  -1.94818  -3.2496 
 

 GradGradGradGradGradGradGradGradGradGradGradGradGradGradGradGradGradGrad
 Berny optimization.
 Initialization pass.
                           ----------------------------
                           !    Initial Parameters    !
                           ! (Angstroms and Degrees)  !
 --------------------------                            --------------------------
 ! Name  Definition              Value          Derivative Info.                !
 --------------------------------------------------------------------------------
 ! R1    R(1,2)                  1.3424         estimate D2E/DX2                !
 ! R2    R(1,6)                  1.3422         estimate D2E/DX2                !
 ! R3    R(1,8)                  1.5096         estimate D2E/DX2                !
 ! R4    R(2,3)                  1.3426         estimate D2E/DX2                !
 ! R5    R(2,14)                 1.103          estimate D2E/DX2                !
 ! R6    R(3,4)                  1.3481         estimate D2E/DX2                !
 ! R7    R(3,15)                 1.1002         estimate D2E/DX2                !
 ! R8    R(4,5)                  1.3487         estimate D2E/DX2                !
 ! R9    R(4,7)                  1.4583         estimate D2E/DX2                !
 ! R10   R(5,6)                  1.3417         estimate D2E/DX2                !
 ! R11   R(5,16)                 1.1017         estimate D2E/DX2                !
 ! R12   R(6,17)                 1.103          estimate D2E/DX2                !
 ! R13   R(7,9)                  1.5265         estimate D2E/DX2                !
 ! R14   R(7,10)                 1.5264         estimate D2E/DX2                !
 ! R15   R(7,11)                 1.5298         estimate D2E/DX2                !
 ! R16   R(8,18)                 1.1129         estimate D2E/DX2                !
 ! R17   R(8,19)                 1.1139         estimate D2E/DX2                !
 ! R18   R(8,20)                 1.1138         estimate D2E/DX2                !
 ! R19   R(9,21)                 1.1137         estimate D2E/DX2                !
 ! R20   R(9,22)                 1.1115         estimate D2E/DX2                !
 ! R21   R(9,23)                 1.114          estimate D2E/DX2                !
 ! R22   R(10,24)                1.1138         estimate D2E/DX2                !
 ! R23   R(10,25)                1.1123         estimate D2E/DX2                !
 ! R24   R(10,26)                1.1143         estimate D2E/DX2                !
 ! R25   R(11,12)                1.5319         estimate D2E/DX2                !
 ! R26   R(11,27)                1.1159         estimate D2E/DX2                !
 ! R27   R(11,28)                1.1145         estimate D2E/DX2                !
 ! R28   R(12,13)                1.4158         estimate D2E/DX2                !
 ! R29   R(12,29)                1.1121         estimate D2E/DX2                !
 ! R30   R(12,30)                1.1111         estimate D2E/DX2                !
 ! R31   R(13,31)                0.9597         estimate D2E/DX2                !
 ! A1    A(2,1,6)              117.5318         estimate D2E/DX2                !
 ! A2    A(2,1,8)              121.8513         estimate D2E/DX2                !
 ! A3    A(6,1,8)              120.6157         estimate D2E/DX2                !
 ! A4    A(1,2,3)              121.111          estimate D2E/DX2                !
 ! A5    A(1,2,14)             119.6397         estimate D2E/DX2                !
 ! A6    A(3,2,14)             119.2493         estimate D2E/DX2                !
 ! A7    A(2,3,4)              122.1267         estimate D2E/DX2                !
 ! A8    A(2,3,15)             115.9445         estimate D2E/DX2                !
 ! A9    A(4,3,15)             121.9288         estimate D2E/DX2                !
 ! A10   A(3,4,5)              115.9592         estimate D2E/DX2                !
 ! A11   A(3,4,7)              123.5871         estimate D2E/DX2                !
 ! A12   A(5,4,7)              120.4535         estimate D2E/DX2                !
 ! A13   A(4,5,6)              122.2949         estimate D2E/DX2                !
 ! A14   A(4,5,16)             121.0158         estimate D2E/DX2                !
 ! A15   A(6,5,16)             116.6892         estimate D2E/DX2                !
 ! A16   A(1,6,5)              120.9755         estimate D2E/DX2                !
 ! A17   A(1,6,17)             119.4443         estimate D2E/DX2                !
 ! A18   A(5,6,17)             119.58           estimate D2E/DX2                !
 ! A19   A(4,7,9)              114.15           estimate D2E/DX2                !
 ! A20   A(4,7,10)             108.9761         estimate D2E/DX2                !
 ! A21   A(4,7,11)             111.0059         estimate D2E/DX2                !
 ! A22   A(9,7,10)             105.6768         estimate D2E/DX2                !
 ! A23   A(9,7,11)             108.3782         estimate D2E/DX2                !
 ! A24   A(10,7,11)            108.3886         estimate D2E/DX2                !
 ! A25   A(1,8,18)             112.5422         estimate D2E/DX2                !
 ! A26   A(1,8,19)             109.9963         estimate D2E/DX2                !
 ! A27   A(1,8,20)             110.6711         estimate D2E/DX2                !
 ! A28   A(18,8,19)            107.8129         estimate D2E/DX2                !
 ! A29   A(18,8,20)            107.2116         estimate D2E/DX2                !
 ! A30   A(19,8,20)            108.4611         estimate D2E/DX2                !
 ! A31   A(7,9,21)             111.2245         estimate D2E/DX2                !
 ! A32   A(7,9,22)             112.8421         estimate D2E/DX2                !
 ! A33   A(7,9,23)             111.5994         estimate D2E/DX2                !
 ! A34   A(21,9,22)            106.3245         estimate D2E/DX2                !
 ! A35   A(21,9,23)            106.1955         estimate D2E/DX2                !
 ! A36   A(22,9,23)            108.2915         estimate D2E/DX2                !
 ! A37   A(7,10,24)            111.3693         estimate D2E/DX2                !
 ! A38   A(7,10,25)            112.601          estimate D2E/DX2                !
 ! A39   A(7,10,26)            111.0072         estimate D2E/DX2                !
 ! A40   A(24,10,25)           106.3542         estimate D2E/DX2                !
 ! A41   A(24,10,26)           107.7193         estimate D2E/DX2                !
 ! A42   A(25,10,26)           107.5227         estimate D2E/DX2                !
 ! A43   A(7,11,12)            112.4834         estimate D2E/DX2                !
 ! A44   A(7,11,27)            110.0172         estimate D2E/DX2                !
 ! A45   A(7,11,28)            111.1            estimate D2E/DX2                !
 ! A46   A(12,11,27)           109.032          estimate D2E/DX2                !
 ! A47   A(12,11,28)           108.5476         estimate D2E/DX2                !
 ! A48   A(27,11,28)           105.3934         estimate D2E/DX2                !
 ! A49   A(11,12,13)           108.2413         estimate D2E/DX2                !
 ! A50   A(11,12,29)           112.7518         estimate D2E/DX2                !
 ! A51   A(11,12,30)           112.857          estimate D2E/DX2                !
 ! A52   A(13,12,29)           107.1635         estimate D2E/DX2                !
 ! A53   A(13,12,30)           106.2867         estimate D2E/DX2                !
 ! A54   A(29,12,30)           109.1751         estimate D2E/DX2                !
 ! A55   A(12,13,31)           110.9845         estimate D2E/DX2                !
 ! D1    D(6,1,2,3)              0.2025         estimate D2E/DX2                !
 ! D2    D(6,1,2,14)          -179.8267         estimate D2E/DX2                !
 ! D3    D(8,1,2,3)            179.8034         estimate D2E/DX2                !
 ! D4    D(8,1,2,14)            -0.2258         estimate D2E/DX2                !
 ! D5    D(2,1,6,5)             -0.2479         estimate D2E/DX2                !
 ! D6    D(2,1,6,17)           179.8827         estimate D2E/DX2                !
 ! D7    D(8,1,6,5)           -179.854          estimate D2E/DX2                !
 ! D8    D(8,1,6,17)             0.2767         estimate D2E/DX2                !
 ! D9    D(2,1,8,18)            -9.6193         estimate D2E/DX2                !
 ! D10   D(2,1,8,19)           110.6131         estimate D2E/DX2                !
 ! D11   D(2,1,8,20)          -129.5551         estimate D2E/DX2                !
 ! D12   D(6,1,8,18)           169.9695         estimate D2E/DX2                !
 ! D13   D(6,1,8,19)           -69.7981         estimate D2E/DX2                !
 ! D14   D(6,1,8,20)            50.0337         estimate D2E/DX2                !
 ! D15   D(1,2,3,4)              0.0485         estimate D2E/DX2                !
 ! D16   D(1,2,3,15)          -179.9478         estimate D2E/DX2                !
 ! D17   D(14,2,3,4)          -179.9225         estimate D2E/DX2                !
 ! D18   D(14,2,3,15)            0.0813         estimate D2E/DX2                !
 ! D19   D(2,3,4,5)             -0.246          estimate D2E/DX2                !
 ! D20   D(2,3,4,7)            179.6019         estimate D2E/DX2                !
 ! D21   D(15,3,4,5)           179.7501         estimate D2E/DX2                !
 ! D22   D(15,3,4,7)            -0.4021         estimate D2E/DX2                !
 ! D23   D(3,4,5,6)              0.1998         estimate D2E/DX2                !
 ! D24   D(3,4,5,16)          -179.9239         estimate D2E/DX2                !
 ! D25   D(7,4,5,6)           -179.6531         estimate D2E/DX2                !
 ! D26   D(7,4,5,16)             0.2232         estimate D2E/DX2                !
 ! D27   D(3,4,7,9)              0.3295         estimate D2E/DX2                !
 ! D28   D(3,4,7,10)           118.1903         estimate D2E/DX2                !
 ! D29   D(3,4,7,11)          -122.5103         estimate D2E/DX2                !
 ! D30   D(5,4,7,9)           -179.8292         estimate D2E/DX2                !
 ! D31   D(5,4,7,10)           -61.9684         estimate D2E/DX2                !
 ! D32   D(5,4,7,11)            57.331          estimate D2E/DX2                !
 ! D33   D(4,5,6,1)              0.0456         estimate D2E/DX2                !
 ! D34   D(4,5,6,17)           179.9148         estimate D2E/DX2                !
 ! D35   D(16,5,6,1)          -179.8357         estimate D2E/DX2                !
 ! D36   D(16,5,6,17)            0.0335         estimate D2E/DX2                !
 ! D37   D(4,7,9,21)          -178.9406         estimate D2E/DX2                !
 ! D38   D(4,7,9,22)           -59.5488         estimate D2E/DX2                !
 ! D39   D(4,7,9,23)            62.663          estimate D2E/DX2                !
 ! D40   D(10,7,9,21)           61.3259         estimate D2E/DX2                !
 ! D41   D(10,7,9,22)         -179.2823         estimate D2E/DX2                !
 ! D42   D(10,7,9,23)          -57.0706         estimate D2E/DX2                !
 ! D43   D(11,7,9,21)          -54.6823         estimate D2E/DX2                !
 ! D44   D(11,7,9,22)           64.7095         estimate D2E/DX2                !
 ! D45   D(11,7,9,23)         -173.0788         estimate D2E/DX2                !
 ! D46   D(4,7,10,24)         -177.9506         estimate D2E/DX2                !
 ! D47   D(4,7,10,25)           62.6829         estimate D2E/DX2                !
 ! D48   D(4,7,10,26)          -57.9279         estimate D2E/DX2                !
 ! D49   D(9,7,10,24)          -54.8673         estimate D2E/DX2                !
 ! D50   D(9,7,10,25)         -174.2337         estimate D2E/DX2                !
 ! D51   D(9,7,10,26)           65.1555         estimate D2E/DX2                !
 ! D52   D(11,7,10,24)          61.1338         estimate D2E/DX2                !
 ! D53   D(11,7,10,25)         -58.2326         estimate D2E/DX2                !
 ! D54   D(11,7,10,26)        -178.8434         estimate D2E/DX2                !
 ! D55   D(4,7,11,12)           56.9463         estimate D2E/DX2                !
 ! D56   D(4,7,11,27)          178.7082         estimate D2E/DX2                !
 ! D57   D(4,7,11,28)          -64.9714         estimate D2E/DX2                !
 ! D58   D(9,7,11,12)          -69.1665         estimate D2E/DX2                !
 ! D59   D(9,7,11,27)           52.5955         estimate D2E/DX2                !
 ! D60   D(9,7,11,28)          168.9158         estimate D2E/DX2                !
 ! D61   D(10,7,11,12)         176.5972         estimate D2E/DX2                !
 ! D62   D(10,7,11,27)         -61.6409         estimate D2E/DX2                !
 ! D63   D(10,7,11,28)          54.6795         estimate D2E/DX2                !
 ! D64   D(7,11,12,13)        -178.6635         estimate D2E/DX2                !
 ! D65   D(7,11,12,29)         -60.2945         estimate D2E/DX2                !
 ! D66   D(7,11,12,30)          63.9898         estimate D2E/DX2                !
 ! D67   D(27,11,12,13)         59.0163         estimate D2E/DX2                !
 ! D68   D(27,11,12,29)        177.3853         estimate D2E/DX2                !
 ! D69   D(27,11,12,30)        -58.3304         estimate D2E/DX2                !
 ! D70   D(28,11,12,13)        -55.3089         estimate D2E/DX2                !
 ! D71   D(28,11,12,29)         63.0601         estimate D2E/DX2                !
 ! D72   D(28,11,12,30)       -172.6556         estimate D2E/DX2                !
 ! D73   D(11,12,13,31)       -168.7671         estimate D2E/DX2                !
 ! D74   D(29,12,13,31)         69.3642         estimate D2E/DX2                !
 ! D75   D(30,12,13,31)        -47.2753         estimate D2E/DX2                !
 --------------------------------------------------------------------------------
 Trust Radius=3.00D-01 FncErr=1.00D-07 GrdErr=1.00D-06
 Number of steps in this run=    171 maximum allowed number of steps=    186.
 GradGradGradGradGradGradGradGradGradGradGradGradGradGradGradGradGradGrad

                          Input orientation:                          
 ---------------------------------------------------------------------
 Center     Atomic      Atomic             Coordinates (Angstroms)
 Number     Number       Type             X           Y           Z
 ---------------------------------------------------------------------
      1          6           0        1.156506    1.738867    0.470964
      2          6           0        1.649348    0.492981    0.554701
      3          6           0        0.841086   -0.561078    0.749943
      4          6           0       -0.495010   -0.427417    0.870270
      5          6           0       -0.972214    0.831380    0.787842
      6          6           0       -0.171443    1.890312    0.593782
      7          7           0       -1.402985   -1.550214    1.074452
      8          6           0        2.050235    2.936329    0.256095
      9          6           0       -0.709848   -2.908141    1.150092
     10          6           0       -2.115182   -1.375520    2.413202
     11          6           0       -2.459598   -1.608898   -0.030230
     12          6           0       -1.840730   -1.700297   -1.428553
     13          8           0       -2.891048   -1.718051   -2.377735
     14          1           0        2.736052    0.328850    0.461497
     15          1           0        1.335055   -1.542530    0.806084
     16          1           0       -2.051041    1.036420    0.876211
     17          1           0       -0.609994    2.900530    0.531956
     18          1           0        3.130293    2.684958    0.350163
     19          1           0        1.885641    3.356626   -0.762203
     20          1           0        1.830248    3.730593    1.005268
     21          1           0       -1.448157   -3.730593    1.287271
     22          1           0       -0.137606   -3.152401    0.229015
     23          1           0       -0.015137   -2.966109    2.018994
     24          1           0       -2.793566   -2.232628    2.626885
     25          1           0       -2.746900   -0.460583    2.445140
     26          1           0       -1.382170   -1.306470    3.249600
     27          1           0       -3.130293   -2.486425    0.128938
     28          1           0       -3.126534   -0.716620    0.004662
     29          1           0       -1.194313   -0.828314   -1.670640
     30          1           0       -1.263689   -2.636904   -1.584770
     31          1           0       -2.562519   -1.948177   -3.249600
 ---------------------------------------------------------------------
                    Distance matrix (angstroms):
                    1          2          3          4          5
     1  C    0.000000
     2  C    1.342437   0.000000
     3  C    2.338176   1.342553   0.000000
     4  C    2.753132   2.354780   1.348146   0.000000
     5  C    2.335678   2.653574   2.286577   1.348736   0.000000
     6  C    1.342188   2.295505   2.656862   2.356482   1.341727
     7  N    4.211086   3.709653   2.473773   1.458349   2.437150
     8  C    1.509581   2.493958   3.733334   4.262660   3.721393
     9  C    5.053630   4.181857   2.841517   2.505683   3.766176
    10  C    4.916873   4.595325   3.488448   2.429917   2.969609
    11  C    4.953275   4.652255   3.549804   2.463007   2.972627
    12  C    4.941603   4.574321   3.638104   2.952249   3.475071
    13  O    6.037223   5.839781   5.004976   4.237484   4.494708
    14  H    2.117358   1.102974   2.113308   3.343471   3.756364
    15  H    3.303294   2.074917   1.100184   2.144000   3.310479
    16  H    3.308476   3.753874   3.306409   2.136372   1.101689
    17  H    2.115113   3.301732   3.759771   3.347075   2.116143
    18  H    2.192149   2.653262   3.992123   4.806268   4.523039
    19  H    2.160899   3.160780   4.327365   4.759354   4.116654
    20  H    2.169420   3.273815   4.411584   4.765931   4.038131
    21  H    6.112742   5.288646   3.946540   3.463142   4.613843
    22  H    5.065350   4.072847   2.818538   2.822142   4.108451
    23  H    5.089788   4.108524   2.850927   2.827508   4.105198
    24  H    6.001986   5.609133   4.419014   3.409962   4.010928
    25  H    4.896073   4.879553   3.969564   2.748149   2.750512
    26  H    4.841464   4.437410   3.427355   2.687192   3.286140
    27  H    6.028824   5.648283   4.456956   3.425464   4.012392
    28  H    4.958960   4.957290   4.040006   2.785289   2.766002
    29  H    4.086959   3.845045   3.173876   2.665702   2.974567
    30  H    5.406548   4.781140   3.766964   3.391153   4.212272
    31  H    6.424020   6.178332   5.431843   4.853930   5.153246
                    6          7          8          9         10
     6  C    0.000000
     7  N    3.685778   0.000000
     8  C    2.478717   5.720446   0.000000
     9  C    4.860505   1.526475   6.524961   0.000000
    10  C    4.213558   1.526432   6.371487   2.432969   0.000000
    11  C    4.227235   1.529770   6.409342   2.478471   2.478598
    12  C    4.446215   2.545423   6.282989   3.063852   3.865215
    13  O    5.407999   3.762990   7.281249   4.315033   4.865426
    14  H    3.302906   4.586744   2.703975   4.777709   5.499864
    15  H    3.754865   2.751171   4.568824   2.482914   3.809837
    16  H    2.083695   2.673939   4.562309   4.175329   2.860753
    17  H    1.103037   4.553269   2.674733   5.842322   4.908083
    18  H    3.404743   6.245950   1.112907   6.831495   6.946842
    19  H    2.867118   6.185907   1.113854   7.045619   6.962973
    20  H    2.750040   6.192375   1.113782   7.109561   6.604626
    21  H    5.805644   2.191206   7.599337   1.113708   2.694255
    22  H    5.056002   2.209740   6.469932   1.111533   3.440754
    23  H    5.063644   2.196142   6.497103   1.113990   2.663750
    24  H    5.292227   2.193046   7.470018   2.641802   1.113777
    25  H    3.948064   2.207304   6.272434   3.437626   1.112294
    26  H    4.328816   2.188861   6.224453   2.724940   1.114287
    27  H    5.303461   2.180385   7.500687   2.660668   2.735402
    28  H    3.984435   2.193160   6.340835   3.457621   2.694076
    29  H    3.683042   2.846087   5.330285   3.537925   4.221990
    30  H    5.141476   2.876067   6.740312   2.803530   4.277839
    31  H    5.934882   4.494477   7.577981   4.869416   5.709236
                   11         12         13         14         15
    11  C    0.000000
    12  C    1.531881   0.000000
    13  O    2.389319   1.415779   0.000000
    14  H    5.566996   5.351323   6.626862   0.000000
    15  H    3.886286   3.886400   5.294096   2.362963   0.000000
    16  H    2.825997   3.584102   4.345214   4.856841   4.256941
    17  H    4.906325   5.150332   5.916147   4.220726   4.857895
    18  H    7.058950   6.863335   7.942573   2.391457   4.615452
    19  H    6.638774   6.316829   7.153953   3.374621   5.173432
    20  H    6.927135   6.992434   7.963860   3.562025   5.300068
    21  H    2.694515   3.413490   4.423181   5.888003   3.572874
    22  H    2.800224   2.785098   4.053881   4.520074   2.256861
    23  H    3.466516   4.101299   5.399976   4.566354   2.306674
    24  H    2.749697   4.199744   5.031949   6.467360   4.564763
    25  H    2.743834   4.166957   4.986194   5.883945   4.529842
    26  H    3.465487   4.717043   5.840634   5.235221   3.661940
    27  H    1.115894   2.169504   2.632688   6.515395   4.613978
    28  H    1.114532   2.162179   2.595021   5.972572   4.607622
    29  H    2.213866   1.112122   2.042186   4.618745   3.611367
    30  H    2.214405   1.111131   2.030119   5.383385   3.696932
    31  H    3.238834   1.974496   0.959707   6.857984   5.639522
                   16         17         18         19         20
    16  H    0.000000
    17  H    2.381183   0.000000
    18  H    5.462657   3.750902   0.000000
    19  H    4.854402   2.847993   1.799348   0.000000
    20  H    4.726482   2.620651   1.792382   1.807449   0.000000
    21  H    4.822536   6.726426   7.937233   8.095877   8.154555
    22  H    4.650410   6.078889   6.690934   6.887922   7.200738
    23  H    4.633691   6.081331   6.679318   7.164146   7.019893
    24  H    3.781915   5.958693   8.028588   8.038697   7.718115
    25  H    2.277449   4.418565   6.987471   6.805775   6.370987
    26  H    3.401396   5.067612   6.685847   6.965459   6.381901
    27  H    3.759473   5.961008   8.123243   7.752095   8.001639
    28  H    2.233704   4.437881   7.130076   6.503946   6.734137
    29  H    3.270729   4.370027   5.926967   5.274950   6.090327
    30  H    4.491064   5.964145   7.167514   6.820359   7.538286
    31  H    5.117787   6.451549   8.175105   7.356236   8.345582
                   21         22         23         24         25
    21  H    0.000000
    22  H    1.780942   0.000000
    23  H    1.781404   1.803809   0.000000
    24  H    2.418386   3.694575   2.937208   0.000000
    25  H    3.704100   4.354941   3.731192   1.781952   0.000000
    26  H    3.119529   3.752377   2.477412   1.799328   1.795875
    27  H    2.391500   3.067526   3.675133   2.533286   3.100938
    28  H    3.680498   3.862260   4.335727   3.047163   2.483065
    29  H    4.151734   3.182248   4.424254   4.795668   4.414227
    30  H    3.078767   2.196273   3.828103   4.499111   4.814194
    31  H    5.000201   4.408075   5.939985   5.887900   5.888718
                   26         27         28         29         30
    26  H    0.000000
    27  H    3.766531   0.000000
    28  H    3.730999   1.774167   0.000000
    29  H    4.946987   3.120229   2.559803   0.000000
    30  H    5.015499   2.538434   3.111909   1.811956   0.000000
    31  H    6.636612   3.467938   3.524921   2.370484   2.221028
                   31
    31  H    0.000000
 Stoichiometry    C11H18NO(1+)
 Framework group  C1[X(C11H18NO)]
 Deg. of freedom    87
 Full point group                 C1      NOp   1
 Largest Abelian subgroup         C1      NOp   1
 Largest concise Abelian subgroup C1      NOp   1
                         Standard orientation:                         
 ---------------------------------------------------------------------
 Center     Atomic      Atomic             Coordinates (Angstroms)
 Number     Number       Type             X           Y           Z
 ---------------------------------------------------------------------
      1          6           0        2.771777    0.276429   -0.020906
      2          6           0        2.183009   -0.272529   -1.095212
      3          6           0        0.896922   -0.656282   -1.061116
      4          6           0        0.134682   -0.511973    0.041454
      5          6           0        0.743475    0.037300    1.112322
      6          6           0        2.028415    0.422683    1.087017
      7          7           0       -1.266668   -0.909642    0.111162
      8          6           0        4.217684    0.709842   -0.039339
      9          6           0       -1.808044   -1.518434   -1.179733
     10          6           0       -1.422898   -1.992834    1.175250
     11          6           0       -2.154563    0.275493    0.494951
     12          6           0       -2.005978    1.455600   -0.470414
     13          8           0       -2.838234    2.507083   -0.016364
     14          1           0        2.762508   -0.411672   -2.023313
     15          1           0        0.501240   -1.096542   -1.988484
     16          1           0        0.198830    0.192550    2.057296
     17          1           0        2.481063    0.868383    1.988766
     18          1           0        4.753594    0.369142   -0.953279
     19          1           0        4.282738    1.821118   -0.000538
     20          1           0        4.764074    0.293732    0.837485
     21          1           0       -2.884319   -1.786364   -1.078776
     22          1           0       -1.738536   -0.825383   -2.045964
     23          1           0       -1.276471   -2.461387   -1.442875
     24          1           0       -2.475100   -2.352870    1.236435
     25          1           0       -1.155054   -1.633722    2.193334
     26          1           0       -0.776391   -2.871638    0.948607
     27          1           0       -3.224272   -0.041186    0.520617
     28          1           0       -1.926256    0.630389    1.526506
     29          1           0       -0.967608    1.852027   -0.508484
     30          1           0       -2.342715    1.214760   -1.501538
     31          1           0       -2.911654    3.197729   -0.678674
 ---------------------------------------------------------------------
 Rotational constants (GHZ):      1.2206423      0.4998202      0.4370467
 Standard basis: 6-311++G(d,p) (5D, 7F)
 There are   425 symmetry adapted cartesian basis functions of A   symmetry.
 There are   412 symmetry adapted basis functions of A   symmetry.
   412 basis functions,   630 primitive gaussians,   425 cartesian basis functions
    49 alpha electrons       49 beta electrons
       nuclear repulsion energy       838.7649303257 Hartrees.
 NAtoms=   31 NActive=   31 NUniq=   31 SFac= 1.00D+00 NAtFMM=   60 NAOKFM=F Big=F
 Integral buffers will be    131072 words long.
 Raffenetti 2 integral format.
 Two-electron integral symmetry is turned on.
 One-electron integrals computed using PRISM.
 NBasis=   412 RedAO= T EigKep=  1.78D-06  NBF=   412
 NBsUse=   410 1.00D-06 EigRej=  3.37D-07 NBFU=   410
 ExpMin= 3.60D-02 ExpMax= 8.59D+03 ExpMxC= 1.30D+03 IAcc=3 IRadAn=         5 AccDes= 0.00D+00
 Harris functional with IExCor=  402 and IRadAn=       5 diagonalized for initial guess.
 HarFok:  IExCor=  402 AccDes= 0.00D+00 IRadAn=         5 IDoV= 1 UseB2=F ITyADJ=14
 ICtDFT=  3500011 ScaDFX=  1.000000  1.000000  1.000000  1.000000
 FoFCou: FMM=F IPFlag=           0 FMFlag=      100000 FMFlg1=           0
         NFxFlg=           0 DoJE=T BraDBF=F KetDBF=T FulRan=T
         wScrn=  0.000000 ICntrl=     500 IOpCl=  0 I1Cent=   200000004 NGrid=           0
         NMat0=    1 NMatS0=      1 NMatT0=    0 NMatD0=    1 NMtDS0=    0 NMtDT0=    0
 Petite list used in FoFCou.
 Keep R1 ints in memory in canonical form, NReq=3658401873.
 Requested convergence on RMS density matrix=1.00D-08 within 128 cycles.
 Requested convergence on MAX density matrix=1.00D-06.
 Requested convergence on             energy=1.00D-06.
 No special actions if energy rises.
 SCF Done:  E(RB3LYP) =  -559.859795401     A.U. after   14 cycles
            NFock= 14  Conv=0.55D-08     -V/T= 2.0039

 **********************************************************************

            Population analysis using the SCF density.

 **********************************************************************

 Orbital symmetries:
       Occupied  (A) (A) (A) (A) (A) (A) (A) (A) (A) (A) (A) (A)
                 (A) (A) (A) (A) (A) (A) (A) (A) (A) (A) (A) (A)
                 (A) (A) (A) (A) (A) (A) (A) (A) (A) (A) (A) (A)
                 (A) (A) (A) (A) (A) (A) (A) (A) (A) (A) (A) (A)
                 (A)
       Virtual   (A) (A) (A) (A) (A) (A) (A) (A) (A) (A) (A) (A)
                 (A) (A) (A) (A) (A) (A) (A) (A) (A) (A) (A) (A)
                 (A) (A) (A) (A) (A) (A) (A) (A) (A) (A) (A) (A)
                 (A) (A) (A) (A) (A) (A) (A) (A) (A) (A) (A) (A)
                 (A) (A) (A) (A) (A) (A) (A) (A) (A) (A) (A) (A)
                 (A) (A) (A) (A) (A) (A) (A) (A) (A) (A) (A) (A)
                 (A) (A) (A) (A) (A) (A) (A) (A) (A) (A) (A) (A)
                 (A) (A) (A) (A) (A) (A) (A) (A) (A) (A) (A) (A)
                 (A) (A) (A) (A) (A) (A) (A) (A) (A) (A) (A) (A)
                 (A) (A) (A) (A) (A) (A) (A) (A) (A) (A) (A) (A)
                 (A) (A) (A) (A) (A) (A) (A) (A) (A) (A) (A) (A)
                 (A) (A) (A) (A) (A) (A) (A) (A) (A) (A) (A) (A)
                 (A) (A) (A) (A) (A) (A) (A) (A) (A) (A) (A) (A)
                 (A) (A) (A) (A) (A) (A) (A) (A) (A) (A) (A) (A)
                 (A) (A) (A) (A) (A) (A) (A) (A) (A) (A) (A) (A)
                 (A) (A) (A) (A) (A) (A) (A) (A) (A) (A) (A) (A)
                 (A) (A) (A) (A) (A) (A) (A) (A) (A) (A) (A) (A)
                 (A) (A) (A) (A) (A) (A) (A) (A) (A) (A) (A) (A)
                 (A) (A) (A) (A) (A) (A) (A) (A) (A) (A) (A) (A)
                 (A) (A) (A) (A) (A) (A) (A) (A) (A) (A) (A) (A)
                 (A) (A) (A) (A) (A) (A) (A) (A) (A) (A) (A) (A)
                 (A) (A) (A) (A) (A) (A) (A) (A) (A) (A) (A) (A)
                 (A) (A) (A) (A) (A) (A) (A) (A) (A) (A) (A) (A)
                 (A) (A) (A) (A) (A) (A) (A) (A) (A) (A) (A) (A)
                 (A) (A) (A) (A) (A) (A) (A) (A) (A) (A) (A) (A)
                 (A) (A) (A) (A) (A) (A) (A) (A) (A) (A) (A) (A)
                 (A) (A) (A) (A) (A) (A) (A) (A) (A) (A) (A) (A)
                 (A) (A) (A) (A) (A) (A) (A) (A) (A) (A) (A) (A)
                 (A) (A) (A) (A) (A) (A) (A) (A) (A) (A) (A) (A)
                 (A) (A) (A) (A) (A) (A) (A) (A) (A) (A) (A) (A)
                 (A)
 The electronic state is 1-A.
 Alpha  occ. eigenvalues --  -19.25635 -14.61737 -10.39008 -10.38858 -10.38655
 Alpha  occ. eigenvalues --  -10.37444 -10.36494 -10.31870 -10.31836 -10.30770
 Alpha  occ. eigenvalues --  -10.30216 -10.30117 -10.28323  -1.18525  -1.16312
 Alpha  occ. eigenvalues --   -1.03380  -0.93517  -0.92617  -0.91478  -0.89215
 Alpha  occ. eigenvalues --   -0.85676  -0.81439  -0.78046  -0.76287  -0.73093
 Alpha  occ. eigenvalues --   -0.70931  -0.69368  -0.66861  -0.63779  -0.62909
 Alpha  occ. eigenvalues --   -0.61786  -0.60989  -0.59465  -0.57953  -0.57280
 Alpha  occ. eigenvalues --   -0.56991  -0.56024  -0.55459  -0.55359  -0.54912
 Alpha  occ. eigenvalues --   -0.53291  -0.50805  -0.50037  -0.48908  -0.47788
 Alpha  occ. eigenvalues --   -0.47549  -0.41530  -0.40889  -0.39785
 Alpha virt. eigenvalues --   -0.15559  -0.14976  -0.13746  -0.12610  -0.11325
 Alpha virt. eigenvalues --   -0.10911  -0.10309  -0.10271  -0.09152  -0.08881
 Alpha virt. eigenvalues --   -0.08223  -0.07100  -0.06726  -0.06088  -0.05746
 Alpha virt. eigenvalues --   -0.05486  -0.04783  -0.04301  -0.03653  -0.03403
 Alpha virt. eigenvalues --   -0.02847  -0.02574  -0.02136  -0.01838  -0.01408
 Alpha virt. eigenvalues --   -0.01197  -0.00813  -0.00516  -0.00330   0.00310
 Alpha virt. eigenvalues --    0.00408   0.01022   0.01183   0.01476   0.01653
 Alpha virt. eigenvalues --    0.01815   0.01957   0.02697   0.03088   0.03244
 Alpha virt. eigenvalues --    0.03726   0.04115   0.04289   0.04570   0.04710
 Alpha virt. eigenvalues --    0.04833   0.05111   0.05468   0.05885   0.05944
 Alpha virt. eigenvalues --    0.06289   0.06897   0.06923   0.07571   0.07811
 Alpha virt. eigenvalues --    0.07923   0.08006   0.08701   0.08896   0.09301
 Alpha virt. eigenvalues --    0.09480   0.09850   0.10611   0.10983   0.11522
 Alpha virt. eigenvalues --    0.11786   0.12672   0.13070   0.13418   0.13919
 Alpha virt. eigenvalues --    0.14174   0.14799   0.15122   0.15577   0.15927
 Alpha virt. eigenvalues --    0.16586   0.17267   0.17372   0.17724   0.18453
 Alpha virt. eigenvalues --    0.19148   0.19253   0.20020   0.20729   0.21332
 Alpha virt. eigenvalues --    0.21514   0.21906   0.22828   0.22974   0.24023
 Alpha virt. eigenvalues --    0.24821   0.25392   0.26084   0.27092   0.27550
 Alpha virt. eigenvalues --    0.27930   0.29101   0.29701   0.30007   0.31004
 Alpha virt. eigenvalues --    0.33789   0.34414   0.36441   0.37004   0.37322
 Alpha virt. eigenvalues --    0.38589   0.40575   0.41676   0.42019   0.42691
 Alpha virt. eigenvalues --    0.44186   0.44800   0.45261   0.45632   0.46262
 Alpha virt. eigenvalues --    0.46935   0.47589   0.47877   0.47994   0.48310
 Alpha virt. eigenvalues --    0.48964   0.50105   0.50434   0.51951   0.52815
 Alpha virt. eigenvalues --    0.53271   0.53808   0.54875   0.55147   0.55608
 Alpha virt. eigenvalues --    0.56048   0.57268   0.57767   0.58672   0.58945
 Alpha virt. eigenvalues --    0.60107   0.60322   0.61949   0.62153   0.62669
 Alpha virt. eigenvalues --    0.63106   0.63304   0.64786   0.66287   0.66657
 Alpha virt. eigenvalues --    0.67299   0.68482   0.70133   0.71753   0.72351
 Alpha virt. eigenvalues --    0.75421   0.75930   0.77676   0.78179   0.79281
 Alpha virt. eigenvalues --    0.80618   0.82081   0.83232   0.84911   0.85340
 Alpha virt. eigenvalues --    0.87234   0.87649   0.89130   0.90736   0.91441
 Alpha virt. eigenvalues --    0.93065   0.93835   0.95694   0.96804   0.98474
 Alpha virt. eigenvalues --    0.99630   0.99747   1.02962   1.03796   1.06892
 Alpha virt. eigenvalues --    1.09364   1.10007   1.14835   1.15499   1.19102
 Alpha virt. eigenvalues --    1.23594   1.24331   1.25113   1.26494   1.26888
 Alpha virt. eigenvalues --    1.27776   1.29787   1.33004   1.33912   1.34516
 Alpha virt. eigenvalues --    1.35093   1.36282   1.37929   1.38490   1.39374
 Alpha virt. eigenvalues --    1.40934   1.42209   1.42802   1.43858   1.44196
 Alpha virt. eigenvalues --    1.45175   1.45445   1.46692   1.47492   1.48591
 Alpha virt. eigenvalues --    1.49071   1.50146   1.50389   1.51991   1.53246
 Alpha virt. eigenvalues --    1.54272   1.55383   1.56413   1.58097   1.60098
 Alpha virt. eigenvalues --    1.60807   1.61481   1.61963   1.63583   1.64674
 Alpha virt. eigenvalues --    1.65552   1.66128   1.67235   1.67771   1.68967
 Alpha virt. eigenvalues --    1.71865   1.73024   1.74303   1.75430   1.78980
 Alpha virt. eigenvalues --    1.80313   1.80764   1.83300   1.84392   1.86487
 Alpha virt. eigenvalues --    1.87587   1.87876   1.89399   1.89407   1.92002
 Alpha virt. eigenvalues --    1.92744   1.94029   1.95253   1.95713   1.98079
 Alpha virt. eigenvalues --    1.99672   2.01443   2.01808   2.03861   2.05287
 Alpha virt. eigenvalues --    2.07690   2.08651   2.09528   2.10511   2.13362
 Alpha virt. eigenvalues --    2.17101   2.17866   2.21987   2.23529   2.25879
 Alpha virt. eigenvalues --    2.27742   2.29827   2.30838   2.31258   2.32138
 Alpha virt. eigenvalues --    2.33531   2.33732   2.34946   2.36097   2.36419
 Alpha virt. eigenvalues --    2.38950   2.39786   2.41379   2.42960   2.44520
 Alpha virt. eigenvalues --    2.46316   2.47393   2.48860   2.49305   2.50495
 Alpha virt. eigenvalues --    2.52778   2.53460   2.55815   2.56501   2.58241
 Alpha virt. eigenvalues --    2.59507   2.62014   2.63261   2.65034   2.65751
 Alpha virt. eigenvalues --    2.65905   2.67636   2.70424   2.71460   2.74060
 Alpha virt. eigenvalues --    2.74478   2.77256   2.80378   2.80512   2.81764
 Alpha virt. eigenvalues --    2.83863   2.85249   2.86186   2.87109   2.87935
 Alpha virt. eigenvalues --    2.90661   2.91142   2.95271   2.97505   3.03326
 Alpha virt. eigenvalues --    3.06472   3.06780   3.11531   3.12140   3.18712
 Alpha virt. eigenvalues --    3.22656   3.34174   3.35751   3.36559   3.41566
 Alpha virt. eigenvalues --    3.43002   3.45408   3.48363   3.54511   3.55805
 Alpha virt. eigenvalues --    3.57328   3.58155   3.59137   3.60361   3.62396
 Alpha virt. eigenvalues --    3.66488   3.67459   3.67785   3.75299   3.83717
 Alpha virt. eigenvalues --    3.84720   3.86222   3.99931   4.04229   4.05604
 Alpha virt. eigenvalues --    4.20770   4.48015   4.50218   4.73174   4.79175
 Alpha virt. eigenvalues --    4.94848   5.26303   5.55477  23.44674  23.65981
 Alpha virt. eigenvalues --   23.70768  23.73391  23.75909  23.80803  23.92070
 Alpha virt. eigenvalues --   23.93797  24.11220  24.14445  24.26246  35.35198
 Alpha virt. eigenvalues --   49.79892
          Condensed to atoms (all electrons):
               1          2          3          4          5          6
     1  C    9.993612   0.055337  -2.511999   0.885349  -0.744366  -0.458567
     2  C    0.055337   9.887905   0.669618  -2.168462   0.173583  -1.879432
     3  C   -2.511999   0.669618   8.368545  -0.261781  -0.456344  -0.156268
     4  C    0.885349  -2.168462  -0.261781  15.145615  -0.309692  -3.241586
     5  C   -0.744366   0.173583  -0.456344  -0.309692   7.472842  -0.463069
     6  C   -0.458567  -1.879432  -0.156268  -3.241586  -0.463069  11.189815
     7  N   -0.158526  -0.213985  -0.090366  -2.192964   0.130990   0.676481
     8  C   -0.924836   0.183226   0.275499   0.017174  -0.209121  -0.296927
     9  C   -0.144553  -0.442571  -0.229097  -0.001684   0.132947   0.187786
    10  C   -0.082953  -0.072449  -0.000775  -1.342515   0.120193   0.316623
    11  C   -0.001371   0.025926  -0.155975   0.068355  -0.259773  -0.331361
    12  C   -0.045769  -0.061973   0.176989  -0.712447   0.153704   0.318308
    13  O    0.002932  -0.002079   0.002324  -0.029430  -0.002375   0.010676
    14  H   -0.079030   0.246569   0.055461   0.099918   0.013345  -0.001012
    15  H    0.074622   0.041143   0.333974  -0.102381   0.006968   0.031444
    16  H   -0.003011   0.031927   0.016132  -0.078153   0.423333  -0.012510
    17  H   -0.060415   0.006286   0.032469  -0.007450  -0.088275   0.416566
    18  H   -0.075292   0.069859  -0.001027  -0.000202  -0.011622  -0.009376
    19  H    0.058041  -0.026301   0.004554   0.003120  -0.011135  -0.025684
    20  H    0.024110  -0.093391  -0.032920   0.008415   0.024703   0.072880
    21  H   -0.002073  -0.011114   0.025434   0.000134   0.010894   0.010253
    22  H   -0.004597  -0.014667  -0.001357   0.073842  -0.003846  -0.029168
    23  H   -0.003594  -0.009478  -0.016252   0.073339  -0.020780  -0.022449
    24  H    0.000033   0.003755   0.004873   0.106685   0.004622  -0.000158
    25  H   -0.007917  -0.006953   0.010320  -0.216941   0.060943   0.065551
    26  H    0.013279  -0.008355  -0.016114   0.063283  -0.039920  -0.037796
    27  H    0.004057   0.031652   0.027302   0.222972  -0.081200  -0.059440
    28  H    0.006895  -0.036898  -0.036897  -0.227838   0.095005   0.124236
    29  H    0.056442   0.101492  -0.026793   0.260216  -0.065469  -0.162018
    30  H    0.005444  -0.051035  -0.002192  -0.185009   0.035091   0.056397
    31  H   -0.002012  -0.000161   0.001272  -0.007265   0.003972   0.002628
               7          8          9         10         11         12
     1  C   -0.158526  -0.924836  -0.144553  -0.082953  -0.001371  -0.045769
     2  C   -0.213985   0.183226  -0.442571  -0.072449   0.025926  -0.061973
     3  C   -0.090366   0.275499  -0.229097  -0.000775  -0.155975   0.176989
     4  C   -2.192964   0.017174  -0.001684  -1.342515   0.068355  -0.712447
     5  C    0.130990  -0.209121   0.132947   0.120193  -0.259773   0.153704
     6  C    0.676481  -0.296927   0.187786   0.316623  -0.331361   0.318308
     7  N    7.829459   0.032713   0.328124   0.734330  -0.066276   0.328463
     8  C    0.032713   6.477155  -0.012287   0.013485  -0.006819   0.021325
     9  C    0.328124  -0.012287   5.916727  -0.228084  -0.264761   0.051386
    10  C    0.734330   0.013485  -0.228084   5.953810  -0.130214  -0.004312
    11  C   -0.066276  -0.006819  -0.264761  -0.130214   7.581185  -0.983142
    12  C    0.328463   0.021325   0.051386  -0.004312  -0.983142   6.297373
    13  O   -0.001874   0.000805  -0.015732   0.010668   0.070913   0.108285
    14  H   -0.004289  -0.014990   0.008931  -0.004352  -0.004640   0.002613
    15  H   -0.053716  -0.011840  -0.017677   0.009127   0.008915  -0.017770
    16  H   -0.026142  -0.011104   0.000003  -0.026537   0.010657  -0.022078
    17  H    0.010950  -0.016700   0.002318   0.008866  -0.000372   0.003586
    18  H   -0.000145   0.374846  -0.001022   0.000778   0.001342  -0.000949
    19  H    0.000885   0.348148   0.000270   0.000067  -0.001012   0.001526
    20  H   -0.001378   0.355198  -0.000381  -0.000363   0.000485  -0.000578
    21  H   -0.004388  -0.000190   0.395805  -0.020022  -0.032869  -0.003782
    22  H   -0.034465  -0.001686   0.400775  -0.013597  -0.053802   0.045178
    23  H   -0.047532  -0.000859   0.388811  -0.007581   0.034591  -0.006055
    24  H   -0.057096   0.000181  -0.019464   0.327997  -0.008682  -0.013716
    25  H    0.024970  -0.001426   0.016627   0.416793  -0.003597  -0.002578
    26  H   -0.024673   0.002892  -0.036666   0.409294   0.047999  -0.011798
    27  H   -0.115766  -0.002215  -0.025705  -0.073670   0.375577  -0.049930
    28  H    0.071327   0.005599   0.007910   0.013617   0.307708   0.033963
    29  H   -0.142398  -0.021465   0.004318  -0.037237   0.061539   0.262459
    30  H    0.110152   0.007383  -0.058757   0.040870  -0.041307   0.442057
    31  H    0.004061   0.000332   0.004053  -0.001317  -0.080481   0.104997
              13         14         15         16         17         18
     1  C    0.002932  -0.079030   0.074622  -0.003011  -0.060415  -0.075292
     2  C   -0.002079   0.246569   0.041143   0.031927   0.006286   0.069859
     3  C    0.002324   0.055461   0.333974   0.016132   0.032469  -0.001027
     4  C   -0.029430   0.099918  -0.102381  -0.078153  -0.007450  -0.000202
     5  C   -0.002375   0.013345   0.006968   0.423333  -0.088275  -0.011622
     6  C    0.010676  -0.001012   0.031444  -0.012510   0.416566  -0.009376
     7  N   -0.001874  -0.004289  -0.053716  -0.026142   0.010950  -0.000145
     8  C    0.000805  -0.014990  -0.011840  -0.011104  -0.016700   0.374846
     9  C   -0.015732   0.008931  -0.017677   0.000003   0.002318  -0.001022
    10  C    0.010668  -0.004352   0.009127  -0.026537   0.008866   0.000778
    11  C    0.070913  -0.004640   0.008915   0.010657  -0.000372   0.001342
    12  C    0.108285   0.002613  -0.017770  -0.022078   0.003586  -0.000949
    13  O    7.966138   0.000016   0.000382  -0.003753   0.000264  -0.000013
    14  H    0.000016   0.503423  -0.031353   0.001055  -0.001120  -0.003045
    15  H    0.000382  -0.031353   0.578889  -0.001022   0.001212   0.002754
    16  H   -0.003753   0.001055  -0.001022   0.545699  -0.022875  -0.000417
    17  H    0.000264  -0.001120   0.001212  -0.022875   0.496384   0.003337
    18  H   -0.000013  -0.003045   0.002754  -0.000417   0.003337   0.524774
    19  H    0.000070   0.002033  -0.000968  -0.000633   0.002028  -0.018568
    20  H   -0.000008  -0.001251   0.000234   0.000662  -0.004065  -0.018275
    21  H   -0.001436  -0.000048   0.007868  -0.000818   0.000042  -0.000034
    22  H   -0.000582   0.002890  -0.017834   0.003011  -0.000438  -0.000156
    23  H   -0.000402   0.001972  -0.015618   0.000955  -0.000137  -0.000116
    24  H    0.001029  -0.000127   0.000904   0.004540   0.000054   0.000035
    25  H    0.000292  -0.000210   0.002767  -0.006251   0.001555   0.000131
    26  H    0.000325  -0.000488  -0.001063  -0.002970  -0.000232  -0.000026
    27  H    0.026738  -0.000542   0.002162   0.011527  -0.001183   0.000067
    28  H    0.000513   0.000375  -0.001613  -0.019651   0.002575  -0.000020
    29  H   -0.073527  -0.003701   0.009577   0.015150  -0.005342   0.000813
    30  H   -0.043310   0.000150  -0.004786  -0.008388   0.000965  -0.000081
    31  H    0.234034   0.000100  -0.000672   0.000053   0.000090  -0.000006
              19         20         21         22         23         24
     1  C    0.058041   0.024110  -0.002073  -0.004597  -0.003594   0.000033
     2  C   -0.026301  -0.093391  -0.011114  -0.014667  -0.009478   0.003755
     3  C    0.004554  -0.032920   0.025434  -0.001357  -0.016252   0.004873
     4  C    0.003120   0.008415   0.000134   0.073842   0.073339   0.106685
     5  C   -0.011135   0.024703   0.010894  -0.003846  -0.020780   0.004622
     6  C   -0.025684   0.072880   0.010253  -0.029168  -0.022449  -0.000158
     7  N    0.000885  -0.001378  -0.004388  -0.034465  -0.047532  -0.057096
     8  C    0.348148   0.355198  -0.000190  -0.001686  -0.000859   0.000181
     9  C    0.000270  -0.000381   0.395805   0.400775   0.388811  -0.019464
    10  C    0.000067  -0.000363  -0.020022  -0.013597  -0.007581   0.327997
    11  C   -0.001012   0.000485  -0.032869  -0.053802   0.034591  -0.008682
    12  C    0.001526  -0.000578  -0.003782   0.045178  -0.006055  -0.013716
    13  O    0.000070  -0.000008  -0.001436  -0.000582  -0.000402   0.001029
    14  H    0.002033  -0.001251  -0.000048   0.002890   0.001972  -0.000127
    15  H   -0.000968   0.000234   0.007868  -0.017834  -0.015618   0.000904
    16  H   -0.000633   0.000662  -0.000818   0.003011   0.000955   0.004540
    17  H    0.002028  -0.004065   0.000042  -0.000438  -0.000137   0.000054
    18  H   -0.018568  -0.018275  -0.000034  -0.000156  -0.000116   0.000035
    19  H    0.512737  -0.043483   0.000014  -0.000026   0.000073  -0.000029
    20  H   -0.043483   0.535629  -0.000003   0.000052  -0.000041   0.000027
    21  H    0.000014  -0.000003   0.437982  -0.026369  -0.019198  -0.003968
    22  H   -0.000026   0.000052  -0.026369   0.516748  -0.028991  -0.002102
    23  H    0.000073  -0.000041  -0.019198  -0.028991   0.475029   0.004774
    24  H   -0.000029   0.000027  -0.003968  -0.002102   0.004774   0.488826
    25  H    0.000019  -0.000096   0.002319  -0.001964  -0.001861  -0.030522
    26  H   -0.000034   0.000101  -0.002347   0.001850  -0.001564  -0.018019
    27  H   -0.000096   0.000042  -0.006876   0.009798  -0.001722  -0.011566
    28  H    0.000102  -0.000026   0.003916  -0.004010  -0.001555  -0.000272
    29  H   -0.002172   0.000675  -0.001147   0.004769  -0.000387   0.000517
    30  H    0.000283  -0.000082   0.000217  -0.011796  -0.000577   0.000596
    31  H    0.000007  -0.000001  -0.000299   0.002448   0.000197  -0.000203
              25         26         27         28         29         30
     1  C   -0.007917   0.013279   0.004057   0.006895   0.056442   0.005444
     2  C   -0.006953  -0.008355   0.031652  -0.036898   0.101492  -0.051035
     3  C    0.010320  -0.016114   0.027302  -0.036897  -0.026793  -0.002192
     4  C   -0.216941   0.063283   0.222972  -0.227838   0.260216  -0.185009
     5  C    0.060943  -0.039920  -0.081200   0.095005  -0.065469   0.035091
     6  C    0.065551  -0.037796  -0.059440   0.124236  -0.162018   0.056397
     7  N    0.024970  -0.024673  -0.115766   0.071327  -0.142398   0.110152
     8  C   -0.001426   0.002892  -0.002215   0.005599  -0.021465   0.007383
     9  C    0.016627  -0.036666  -0.025705   0.007910   0.004318  -0.058757
    10  C    0.416793   0.409294  -0.073670   0.013617  -0.037237   0.040870
    11  C   -0.003597   0.047999   0.375577   0.307708   0.061539  -0.041307
    12  C   -0.002578  -0.011798  -0.049930   0.033963   0.262459   0.442057
    13  O    0.000292   0.000325   0.026738   0.000513  -0.073527  -0.043310
    14  H   -0.000210  -0.000488  -0.000542   0.000375  -0.003701   0.000150
    15  H    0.002767  -0.001063   0.002162  -0.001613   0.009577  -0.004786
    16  H   -0.006251  -0.002970   0.011527  -0.019651   0.015150  -0.008388
    17  H    0.001555  -0.000232  -0.001183   0.002575  -0.005342   0.000965
    18  H    0.000131  -0.000026   0.000067  -0.000020   0.000813  -0.000081
    19  H    0.000019  -0.000034  -0.000096   0.000102  -0.002172   0.000283
    20  H   -0.000096   0.000101   0.000042  -0.000026   0.000675  -0.000082
    21  H    0.002319  -0.002347  -0.006876   0.003916  -0.001147   0.000217
    22  H   -0.001964   0.001850   0.009798  -0.004010   0.004769  -0.011796
    23  H   -0.001861  -0.001564  -0.001722  -0.001555  -0.000387  -0.000577
    24  H   -0.030522  -0.018019  -0.011566  -0.000272   0.000517   0.000596
    25  H    0.469518  -0.014199   0.002454  -0.001034   0.000758  -0.000637
    26  H   -0.014199   0.433735   0.003520   0.001164   0.000405   0.000430
    27  H    0.002454   0.003520   0.550337  -0.068157   0.054621  -0.063336
    28  H   -0.001034   0.001164  -0.068157   0.483995  -0.042167   0.033293
    29  H    0.000758   0.000405   0.054621  -0.042167   0.671640  -0.135154
    30  H   -0.000637   0.000430  -0.063336   0.033293  -0.135154   0.716166
    31  H   -0.000104  -0.000033  -0.001066   0.001401  -0.000425  -0.014627
              31
     1  C   -0.002012
     2  C   -0.000161
     3  C    0.001272
     4  C   -0.007265
     5  C    0.003972
     6  C    0.002628
     7  N    0.004061
     8  C    0.000332
     9  C    0.004053
    10  C   -0.001317
    11  C   -0.080481
    12  C    0.104997
    13  O    0.234034
    14  H    0.000100
    15  H   -0.000672
    16  H    0.000053
    17  H    0.000090
    18  H   -0.000006
    19  H    0.000007
    20  H   -0.000001
    21  H   -0.000299
    22  H    0.002448
    23  H    0.000197
    24  H   -0.000203
    25  H   -0.000104
    26  H   -0.000033
    27  H   -0.001066
    28  H    0.001401
    29  H   -0.000425
    30  H   -0.014627
    31  H    0.470392
 Mulliken charges:
               1
     1  C    0.130725
     2  C   -0.428974
     3  C   -0.008605
     4  C    0.057384
     5  C   -0.096145
     6  C   -0.292825
     7  N   -0.046922
     8  C   -0.583497
     9  C   -0.348351
    10  C   -0.330543
    11  C   -0.168737
    12  C   -0.415334
    13  O   -0.261884
    14  H    0.211345
    15  H    0.165370
    16  H    0.181606
    17  H    0.219057
    18  H    0.161656
    19  H    0.196162
    20  H    0.173127
    21  H    0.242105
    22  H    0.190091
    23  H    0.227007
    24  H    0.216475
    25  H    0.221272
    26  H    0.238017
    27  H    0.239645
    28  H    0.246545
    29  H    0.214013
    30  H    0.171580
    31  H    0.278635
 Sum of Mulliken charges =   1.00000
 Mulliken charges with hydrogens summed into heavy atoms:
               1
     1  C    0.130725
     2  C   -0.217629
     3  C    0.156764
     4  C    0.057384
     5  C    0.085461
     6  C   -0.073768
     7  N   -0.046922
     8  C   -0.052552
     9  C    0.310852
    10  C    0.345222
    11  C    0.317454
    12  C   -0.029742
    13  O    0.016751
 Electronic spatial extent (au):  <R**2>=           2819.2509
 Charge=              1.0000 electrons
 Dipole moment (field-independent basis, Debye):
    X=             -2.7589    Y=             -2.9323    Z=             -1.0633  Tot=              4.1642
 Quadrupole moment (field-independent basis, Debye-Ang):
   XX=            -52.8378   YY=            -64.4702   ZZ=            -65.8379
   XY=              8.5277   XZ=              3.7309   YZ=             -3.4985
 Traceless Quadrupole moment (field-independent basis, Debye-Ang):
   XX=              8.2108   YY=             -3.4216   ZZ=             -4.7893
   XY=              8.5277   XZ=              3.7309   YZ=             -3.4985
 Octapole moment (field-independent basis, Debye-Ang**2):
  XXX=             14.2982  YYY=              7.5782  ZZZ=              0.3331  XYY=            -34.3014
  XXY=             -0.8531  XXZ=            -15.0694  XZZ=            -11.2908  YZZ=             -4.2640
  YYZ=            -14.3603  XYZ=             18.4968
 Hexadecapole moment (field-independent basis, Debye-Ang**3):
 XXXX=          -2168.4226 YYYY=           -648.1312 ZZZZ=           -430.3240 XXXY=             57.6727
 XXXZ=             31.9330 YYYX=            -46.4552 YYYZ=            -63.3200 ZZZX=              2.6428
 ZZZY=              4.9286 XXYY=           -474.7572 XXZZ=           -430.5843 YYZZ=           -186.2424
 XXYZ=            -33.3696 YYXZ=             46.6075 ZZXY=             -2.4780
 N-N= 8.387649303257D+02 E-N=-2.963483352529D+03  KE= 5.576687893174D+02

 **********************************************************************

            Electrostatic Properties Using The SCF Density

 **********************************************************************

       Atomic Center    1 is at   2.771777  0.276429 -0.020906
       Atomic Center    2 is at   2.183009 -0.272529 -1.095212
       Atomic Center    3 is at   0.896922 -0.656282 -1.061116
       Atomic Center    4 is at   0.134682 -0.511973  0.041454
       Atomic Center    5 is at   0.743475  0.037300  1.112322
       Atomic Center    6 is at   2.028415  0.422683  1.087017
       Atomic Center    7 is at  -1.266668 -0.909642  0.111162
       Atomic Center    8 is at   4.217684  0.709842 -0.039339
       Atomic Center    9 is at  -1.808044 -1.518434 -1.179733
       Atomic Center   10 is at  -1.422898 -1.992834  1.175250
       Atomic Center   11 is at  -2.154563  0.275493  0.494951
       Atomic Center   12 is at  -2.005978  1.455600 -0.470414
       Atomic Center   13 is at  -2.838234  2.507083 -0.016364
       Atomic Center   14 is at   2.762508 -0.411672 -2.023313
       Atomic Center   15 is at   0.501240 -1.096542 -1.988484
       Atomic Center   16 is at   0.198830  0.192550  2.057296
       Atomic Center   17 is at   2.481063  0.868383  1.988766
       Atomic Center   18 is at   4.753594  0.369142 -0.953279
       Atomic Center   19 is at   4.282738  1.821118 -0.000538
       Atomic Center   20 is at   4.764074  0.293732  0.837485
       Atomic Center   21 is at  -2.884319 -1.786364 -1.078776
       Atomic Center   22 is at  -1.738536 -0.825383 -2.045964
       Atomic Center   23 is at  -1.276471 -2.461387 -1.442875
       Atomic Center   24 is at  -2.475100 -2.352870  1.236435
       Atomic Center   25 is at  -1.155054 -1.633722  2.193334
       Atomic Center   26 is at  -0.776391 -2.871638  0.948607
       Atomic Center   27 is at  -3.224272 -0.041186  0.520617
       Atomic Center   28 is at  -1.926256  0.630389  1.526506
       Atomic Center   29 is at  -0.967608  1.852027 -0.508484
       Atomic Center   30 is at  -2.342715  1.214760 -1.501538
       Atomic Center   31 is at  -2.911654  3.197729 -0.678674
 -----------------------------------------------------------------

              Electrostatic Properties (Atomic Units)

 -----------------------------------------------------------------
    Center     Electric         -------- Electric Field --------
               Potential          X             Y             Z
 -----------------------------------------------------------------
    1 Atom    -14.646927      0.014799      0.003712     -0.001074
    2 Atom    -14.653262      0.008449     -0.001017     -0.009734
    3 Atom    -14.635151     -0.003615     -0.005619     -0.012593
    4 Atom    -14.586466      0.008521      0.002169     -0.001227
    5 Atom    -14.635479     -0.004597      0.002589      0.012797
    6 Atom    -14.652238      0.006084      0.005016      0.009926
    7 Atom    -18.092230     -0.006290     -0.001930      0.001018
    8 Atom    -14.661742      0.002729      0.000440     -0.000325
    9 Atom    -14.555323     -0.004547     -0.005545     -0.011603
   10 Atom    -14.559601     -0.001378     -0.009846      0.009292
   11 Atom    -14.558043     -0.008916      0.012019      0.002942
   12 Atom    -14.569549      0.006898     -0.001874     -0.007288
   13 Atom    -22.237026     -0.022825      0.001559      0.044672
   14 Atom     -0.978969      0.002419     -0.001508     -0.005807
   15 Atom     -0.957374     -0.004596     -0.003228     -0.005397
   16 Atom     -0.956259     -0.004628      0.000882      0.006471
   17 Atom     -0.977600      0.001275      0.002350      0.006413
   18 Atom     -1.007448      0.000420     -0.000788     -0.003465
   19 Atom     -1.002063      0.002395      0.004642      0.001182
   20 Atom     -1.003915      0.002537      0.000518      0.003819
   21 Atom     -0.923685     -0.001930      0.002706      0.008621
   22 Atom     -0.925044      0.004194      0.004670      0.002127
   23 Atom     -0.924873      0.005377      0.000172      0.004067
   24 Atom     -0.928826     -0.004401      0.003077     -0.005129
   25 Atom     -0.928572      0.003321      0.007009     -0.001246
   26 Atom     -0.928578      0.003577      0.002006     -0.005469
   27 Atom     -0.934688     -0.000766     -0.006060     -0.002256
   28 Atom     -0.934605      0.006025     -0.002941      0.001966
   29 Atom     -0.976437      0.009810     -0.005803     -0.001035
   30 Atom     -0.970402      0.002825     -0.009344     -0.007404
   31 Atom     -0.869627     -0.001361      0.019892     -0.019460
 -----------------------------------------------------------------
 -----------------------------------------------------
    Center         ---- Electric Field Gradient ----
                     XX            YY            ZZ
 -----------------------------------------------------
    1 Atom     -501.018165   -501.441289   -500.918519
    2 Atom     -500.940385   -501.300351   -500.960024
    3 Atom     -500.822174   -501.225547   -500.954054
    4 Atom     -501.075895   -500.739614   -500.425025
    5 Atom     -500.818744   -501.196109   -500.944371
    6 Atom     -500.923125   -501.318377   -500.943312
    7 Atom     -812.664002   -812.702463   -812.682603
    8 Atom     -500.325910   -500.212263   -500.183063
    9 Atom     -500.292007   -500.316759   -500.654965
   10 Atom     -500.293917   -500.641806   -500.608094
   11 Atom     -500.605865   -500.773653   -500.424585
   12 Atom     -500.278592   -500.495542   -500.255097
   13 Atom    -1235.558894  -1237.525775  -1236.157766
   14 Atom       -1.776615     -1.653934     -1.953347
   15 Atom       -1.738794     -1.726435     -1.968993
   16 Atom       -1.786060     -1.666674     -1.977646
   17 Atom       -1.731288     -1.712740     -1.936543
   18 Atom       -1.744078     -1.684252     -1.922923
   19 Atom       -1.641764     -2.035372     -1.631779
   20 Atom       -1.739079     -1.691920     -1.891226
   21 Atom       -1.997186     -1.651359     -1.655184
   22 Atom       -1.639744     -1.805985     -1.878089
   23 Atom       -1.729268     -1.907118     -1.663393
   24 Atom       -1.991209     -1.679176     -1.645444
   25 Atom       -1.653589     -1.698354     -1.960951
   26 Atom       -1.758738     -1.867965     -1.659967
   27 Atom       -1.990855     -1.695498     -1.642223
   28 Atom       -1.669048     -1.687108     -1.974260
   29 Atom       -2.033995     -1.743875     -1.686070
   30 Atom       -1.731184     -1.736418     -2.041452
   31 Atom       -1.513275     -1.895123     -1.864208
 -----------------------------------------------------
 -----------------------------------------------------
    Center         ---- Electric Field Gradient ----
                     XY            XZ            YZ
 -----------------------------------------------------
    1 Atom        0.144180     -0.056632      0.198736
    2 Atom        0.139410      0.004441      0.150850
    3 Atom        0.130131     -0.043200      0.107909
    4 Atom       -0.097662     -0.013721      0.105771
    5 Atom        0.133719     -0.017562      0.105562
    6 Atom        0.112482     -0.090030      0.124606
    7 Atom       -0.006097     -0.039024     -0.004759
    8 Atom       -0.030358      0.003382      0.009466
    9 Atom       -0.106935     -0.219329     -0.236386
   10 Atom       -0.053496      0.054202      0.343853
   11 Atom        0.313145      0.133191     -0.111962
   12 Atom        0.224083      0.123209     -0.055270
   13 Atom        1.467915      0.528567      0.586327
   14 Atom        0.021066      0.180762     -0.050593
   15 Atom       -0.069009     -0.127104     -0.146541
   16 Atom        0.020817      0.180069     -0.054770
   17 Atom       -0.072166     -0.133221     -0.140567
   18 Atom        0.054832      0.154571     -0.105903
   19 Atom       -0.021745      0.000948     -0.015454
   20 Atom        0.070251     -0.151308      0.120862
   21 Atom       -0.088762      0.044096      0.002749
   22 Atom       -0.024109      0.017313      0.185516
   23 Atom        0.161388      0.032802     -0.075733
   24 Atom       -0.112659      0.008775      0.016635
   25 Atom       -0.039137     -0.087668     -0.116114
   26 Atom        0.176848      0.057475     -0.058322
   27 Atom       -0.108375      0.004916     -0.002206
   28 Atom       -0.016682     -0.084171     -0.105477
   29 Atom       -0.120807      0.013062      0.006506
   30 Atom       -0.019556     -0.109389     -0.087751
   31 Atom        0.064062     -0.017758      0.350886
 -----------------------------------------------------
 -----------------------------------------------------
    Center         ---- Electric Field Gradient ----
                   ----       Eigenvalues       ----
 -----------------------------------------------------
    1 Atom     -501.553022   -500.973849   -500.851103
    2 Atom     -501.394572   -500.954649   -500.851539
    3 Atom     -501.302356   -500.916419   -500.783001
    4 Atom     -501.102514   -500.747855   -500.390165
    5 Atom     -501.272884   -500.911781   -500.774559
    6 Atom     -501.394412   -500.947780   -500.842622
    7 Atom     -812.717248   -812.698684   -812.633136
    8 Atom     -500.333719   -500.207495   -500.180023
    9 Atom     -500.878062   -500.198184   -500.187485
   10 Atom     -500.977690   -500.286407   -500.279720
   11 Atom     -501.059557   -500.409140   -500.335407
   12 Atom     -500.667407   -500.265341   -500.096483
   13 Atom    -1238.344672  -1236.448475  -1234.449288
   14 Atom       -2.073164     -1.667571     -1.643162
   15 Atom       -2.096277     -1.682827     -1.655117
   16 Atom       -2.093612     -1.682371     -1.654397
   17 Atom       -2.071632     -1.666014     -1.642925
   18 Atom       -2.050802     -1.657193     -1.643259
   19 Atom       -2.037153     -1.640898     -1.630863
   20 Atom       -2.040534     -1.646829     -1.634861
   21 Atom       -2.023775     -1.652614     -1.627338
   22 Atom       -2.033117     -1.656148     -1.634553
   23 Atom       -2.021214     -1.650650     -1.627916
   24 Atom       -2.028107     -1.657028     -1.630693
   25 Atom       -2.029381     -1.655469     -1.628045
   26 Atom       -2.016866     -1.648047     -1.621757
   27 Atom       -2.026396     -1.660709     -1.641471
   28 Atom       -2.029012     -1.660954     -1.640450
   29 Atom       -2.078248     -1.700346     -1.685345
   30 Atom       -2.098313     -1.717097     -1.693645
   31 Atom       -2.235649     -1.551377     -1.485581
 -----------------------------------------------------
 -----------------------------------------------------
    Center         ---- Electric Field Gradient ----
                       ( tensor representation )
                   3XX-RR        3YY-RR        3ZZ-RR
 -----------------------------------------------------
    1 Atom        0.107827     -0.315298      0.207472
    2 Atom        0.126535     -0.233431      0.106896
    3 Atom        0.178417     -0.224955      0.046538
    4 Atom       -0.329051      0.007231      0.321820
    5 Atom        0.167664     -0.209701      0.042037
    6 Atom        0.138480     -0.256772      0.118293
    7 Atom        0.019021     -0.019441      0.000420
    8 Atom       -0.085498      0.028149      0.057349
    9 Atom        0.129236      0.104485     -0.233721
   10 Atom        0.220689     -0.127201     -0.093488
   11 Atom       -0.004497     -0.172285      0.176783
   12 Atom        0.064485     -0.152465      0.087980
   13 Atom        0.855251     -1.111630      0.256379
   14 Atom        0.018017      0.140698     -0.158715
   15 Atom        0.072614      0.084972     -0.157585
   16 Atom        0.024067      0.143453     -0.167519
   17 Atom        0.062236      0.080784     -0.143020
   18 Atom        0.039673      0.099499     -0.139172
   19 Atom        0.127874     -0.265734      0.137859
   20 Atom        0.034996      0.082155     -0.117151
   21 Atom       -0.229276      0.116551      0.112726
   22 Atom        0.134862     -0.031379     -0.103483
   23 Atom        0.037325     -0.140525      0.103200
   24 Atom       -0.219266      0.092767      0.126499
   25 Atom        0.117376      0.072611     -0.189987
   26 Atom        0.003485     -0.105741      0.102257
   27 Atom       -0.214663      0.080694      0.133969
   28 Atom        0.107757      0.089697     -0.197455
   29 Atom       -0.212682      0.077439      0.135243
   30 Atom        0.105167      0.099933     -0.205101
   31 Atom        0.244260     -0.137587     -0.106673
 -----------------------------------------------------
 -----------------------------------------------------
    Center         ---- Electric Field Gradient ----
                       ( tensor representation )
                   ----       Eigenvalues       ----
 -----------------------------------------------------
    1 Atom       -0.427031      0.152143      0.274889
    2 Atom       -0.327652      0.112271      0.215381
    3 Atom       -0.301764      0.084173      0.217591
    4 Atom       -0.355669     -0.001010      0.356679
    5 Atom       -0.286476      0.074627      0.211849
    6 Atom       -0.332808      0.113825      0.218983
    7 Atom       -0.034225     -0.015661      0.049886
    8 Atom       -0.093306      0.032917      0.060389
    9 Atom       -0.456818      0.223060      0.233758
   10 Atom       -0.463084      0.228198      0.234886
   11 Atom       -0.458189      0.192228      0.265961
   12 Atom       -0.324330      0.077736      0.246594
   13 Atom       -1.930528     -0.034330      1.964857
   14 Atom       -0.278532      0.127062      0.151470
   15 Atom       -0.284870      0.128580      0.156290
   16 Atom       -0.283485      0.127756      0.155729
   17 Atom       -0.278109      0.127510      0.150599
   18 Atom       -0.267050      0.126558      0.140492
   19 Atom       -0.267515      0.128740      0.138775
   20 Atom       -0.266459      0.127246      0.139213
   21 Atom       -0.255866      0.115295      0.140571
   22 Atom       -0.258511      0.118458      0.140053
   23 Atom       -0.254621      0.115943      0.138677
   24 Atom       -0.256164      0.114914      0.141250
   25 Atom       -0.258416      0.115496      0.142920
   26 Atom       -0.254642      0.114176      0.140466
   27 Atom       -0.250204      0.115483      0.134721
   28 Atom       -0.252206      0.115851      0.136356
   29 Atom       -0.256935      0.120967      0.135968
   30 Atom       -0.261961      0.119255      0.142706
   31 Atom       -0.478113      0.206158      0.271955
 -----------------------------------------------------
 Calling FoFJK, ICntrl=      2127 FMM=F ISym2X=0 I1Cent= 0 IOpClX= 0 NMat=1 NMatS=1 NMatT=0.
 ***** Axes restored to original set *****
 -------------------------------------------------------------------
 Center     Atomic                   Forces (Hartrees/Bohr)
 Number     Number              X              Y              Z
 -------------------------------------------------------------------
      1        6           0.041917876    0.047550954   -0.007503715
      2        6           0.060548564   -0.008680453   -0.005368162
      3        6           0.026488610   -0.073090164    0.004991246
      4        6           0.000344393   -0.008534603    0.000302234
      5        6          -0.075182130    0.011215670    0.006805569
      6        6          -0.030303499    0.053716498   -0.002955814
      7        7          -0.022359520   -0.026648604    0.013890859
      8        6           0.008988377    0.009706255   -0.001026477
      9        6           0.013083538   -0.022685650    0.001712005
     10        6          -0.015292361    0.001638861    0.024730924
     11        6          -0.021779954   -0.002486510   -0.014850139
     12        6           0.015432687   -0.002881479   -0.024126788
     13        8          -0.016895101    0.002615409    0.010710082
     14        1          -0.011694328    0.000563724    0.001390159
     15        1          -0.007154285    0.008260720   -0.000223570
     16        1           0.009489148   -0.003153214   -0.000708096
     17        1           0.002877941   -0.011119660    0.001102893
     18        1          -0.013569525    0.001590304   -0.001776514
     19        1           0.002219209   -0.002492713    0.011858210
     20        1           0.001779508   -0.007876297   -0.010291486
     21        1           0.002967190    0.017683486   -0.002128911
     22        1          -0.008612922    0.010213554    0.011176224
     23        1          -0.010325552    0.007915996   -0.011641820
     24        1           0.011143497    0.007761354   -0.008935597
     25        1           0.012002626   -0.010310008   -0.007572998
     26        1          -0.005013457   -0.001217733   -0.016433520
     27        1           0.013095880    0.009611722    0.002688667
     28        1           0.013896730   -0.008999578    0.004047218
     29        1          -0.001566180   -0.008808845    0.010819157
     30        1           0.000476335    0.009155279    0.010033937
     31        1           0.002996704   -0.000214276   -0.000715776
 -------------------------------------------------------------------
 Cartesian Forces:  Max     0.075182130 RMS     0.018675754

 GradGradGradGradGradGradGradGradGradGradGradGradGradGradGradGradGradGrad
 Berny optimization.
 FormGI is forming the generalized inverse of G from B-inverse, IUseBI=4.
 Internal  Forces:  Max     0.063381280 RMS     0.012395553
 Search for a local minimum.
 Step number   1 out of a maximum of  171
 All quantities printed in internal units (Hartrees-Bohrs-Radians)
 Mixed Optimization -- RFO/linear search
 Second derivative matrix not updated -- first step.
 ITU=  0
     Eigenvalues ---    0.00230   0.00230   0.00230   0.00344   0.00639
     Eigenvalues ---    0.00920   0.01483   0.01888   0.02037   0.02783
     Eigenvalues ---    0.02806   0.02814   0.02837   0.02849   0.02853
     Eigenvalues ---    0.02857   0.03436   0.04674   0.04733   0.05135
     Eigenvalues ---    0.05248   0.05259   0.05315   0.05372   0.05389
     Eigenvalues ---    0.05397   0.05531   0.07035   0.07261   0.08326
     Eigenvalues ---    0.11613   0.12199   0.13675   0.14592   0.15229
     Eigenvalues ---    0.16000   0.16000   0.16000   0.16000   0.16000
     Eigenvalues ---    0.16000   0.16000   0.16000   0.16000   0.16000
     Eigenvalues ---    0.16000   0.16000   0.16000   0.16000   0.21854
     Eigenvalues ---    0.21980   0.22000   0.22953   0.24000   0.24999
     Eigenvalues ---    0.25000   0.29250   0.29445   0.29751   0.29755
     Eigenvalues ---    0.31393   0.31984   0.32125   0.32150   0.32181
     Eigenvalues ---    0.32195   0.32203   0.32203   0.32211   0.32294
     Eigenvalues ---    0.32358   0.32376   0.32438   0.32481   0.33349
     Eigenvalues ---    0.33355   0.33496   0.33662   0.37172   0.43102
     Eigenvalues ---    0.49581   0.50255   0.55536   0.55634   0.56083
     Eigenvalues ---    0.56669   0.56760
 RFO step:  Lambda=-5.16621743D-02 EMin= 2.30000000D-03
 Linear search not attempted -- first point.
 Maximum step size (   0.300) exceeded in Quadratic search.
    -- Step size scaled by   0.855
 Iteration  1 RMS(Cart)=  0.05839479 RMS(Int)=  0.00118764
 Iteration  2 RMS(Cart)=  0.00160835 RMS(Int)=  0.00037235
 Iteration  3 RMS(Cart)=  0.00000071 RMS(Int)=  0.00037235
 Variable       Old X    -DE/DX   Delta X   Delta X   Delta X     New X
                                 (Linear)    (Quad)   (Total)
    R1        2.53684   0.05932   0.00000   0.08274   0.08272   2.61956
    R2        2.53637   0.06338   0.00000   0.08827   0.08826   2.62462
    R3        2.85270   0.00057   0.00000   0.00133   0.00133   2.85402
    R4        2.53706   0.05454   0.00000   0.07549   0.07548   2.61254
    R5        2.08432  -0.01172   0.00000  -0.02603  -0.02603   2.05829
    R6        2.54763   0.04831   0.00000   0.06754   0.06755   2.61518
    R7        2.07905  -0.01059   0.00000  -0.02333  -0.02333   2.05571
    R8        2.54874   0.05179   0.00000   0.07260   0.07261   2.62135
    R9        2.75588   0.02450   0.00000   0.04950   0.04950   2.80538
   R10        2.53550   0.05046   0.00000   0.06962   0.06962   2.60512
   R11        2.08189  -0.00994   0.00000  -0.02198  -0.02198   2.05991
   R12        2.08444  -0.01139   0.00000  -0.02530  -0.02530   2.05914
   R13        2.88462  -0.01303   0.00000  -0.03192  -0.03192   2.85270
   R14        2.88454  -0.00877   0.00000  -0.02148  -0.02148   2.86306
   R15        2.89085  -0.00281   0.00000  -0.00696  -0.00696   2.88389
   R16        2.10309  -0.01368   0.00000  -0.03123  -0.03123   2.07186
   R17        2.10488  -0.01211   0.00000  -0.02772  -0.02772   2.07716
[...]
    17  H    0.000057
    18  H   -0.000004
    19  H    0.000003
    20  H   -0.000001
    21  H   -0.000309
    22  H    0.001887
    23  H    0.000210
    24  H   -0.000155
    25  H   -0.000093
    26  H   -0.000042
    27  H   -0.003856
    28  H    0.004174
    29  H   -0.004352
    30  H   -0.008271
    31  H    0.487076
 Mulliken charges:
               1
     1  C    0.195853
     2  C   -0.515567
     3  C   -0.055415
     4  C    0.008832
     5  C   -0.159115
     6  C   -0.240969
     7  N   -0.099019
     8  C   -0.517559
     9  C   -0.279373
    10  C   -0.254875
    11  C   -0.204040
    12  C   -0.349087
    13  O   -0.245436
    14  H    0.209743
    15  H    0.173870
    16  H    0.183076
    17  H    0.224399
    18  H    0.162186
    19  H    0.189927
    20  H    0.181646
    21  H    0.232477
    22  H    0.188316
    23  H    0.203986
    24  H    0.207380
    25  H    0.206888
    26  H    0.223456
    27  H    0.224328
    28  H    0.238650
    29  H    0.209191
    30  H    0.178816
    31  H    0.277435
 Sum of Mulliken charges =   1.00000
 Mulliken charges with hydrogens summed into heavy atoms:
               1
     1  C    0.195853
     2  C   -0.305824
     3  C    0.118455
     4  C    0.008832
     5  C    0.023962
     6  C   -0.016570
     7  N   -0.099019
     8  C    0.016199
     9  C    0.345406
    10  C    0.382849
    11  C    0.258937
    12  C    0.038919
    13  O    0.032000
 Electronic spatial extent (au):  <R**2>=           2889.5494
 Charge=              1.0000 electrons
 Dipole moment (field-independent basis, Debye):
    X=             -2.5655    Y=             -2.6527    Z=             -0.9133  Tot=              3.8017
 Quadrupole moment (field-independent basis, Debye-Ang):
   XX=            -50.7531   YY=            -64.5154   ZZ=            -66.2512
   XY=              7.7903   XZ=              3.1354   YZ=             -2.3924
 Traceless Quadrupole moment (field-independent basis, Debye-Ang):
   XX=              9.7534   YY=             -4.0088   ZZ=             -5.7446
   XY=              7.7903   XZ=              3.1354   YZ=             -2.3924
 Octapole moment (field-independent basis, Debye-Ang**2):
  XXX=             18.8775  YYY=             10.1246  ZZZ=              1.7012  XYY=            -34.3304
  XXY=              3.8875  XXZ=            -15.7206  XZZ=            -11.9283  YZZ=             -2.2934
  YYZ=            -14.2414  XYZ=             21.4710
 Hexadecapole moment (field-independent basis, Debye-Ang**3):
 XXXX=          -2217.1473 YYYY=           -648.0489 ZZZZ=           -439.8118 XXXY=             54.6163
 XXXZ=             29.3100 YYYX=            -54.6172 YYYZ=            -57.5028 ZZZX=              0.2998
 ZZZY=              6.4764 XXYY=           -478.4241 XXZZ=           -447.1252 YYZZ=           -180.4751
 XXYZ=            -31.6725 YYXZ=             45.7559 ZZXY=             -7.2542
 N-N= 8.299345315649D+02 E-N=-2.945617651198D+03  KE= 5.573531503592D+02

 **********************************************************************

            Electrostatic Properties Using The SCF Density

 **********************************************************************

       Atomic Center    1 is at   2.856532  0.290762 -0.028836
       Atomic Center    2 is at   2.272026 -0.426582 -1.073014
       Atomic Center    3 is at   0.932343 -0.817796 -1.035772
       Atomic Center    4 is at   0.155815 -0.486404  0.067341
       Atomic Center    5 is at   0.715082  0.226802  1.128772
       Atomic Center    6 is at   2.048745  0.608197  1.072488
       Atomic Center    7 is at  -1.294672 -0.903820  0.166945
       Atomic Center    8 is at   4.300420  0.715443 -0.072855
       Atomic Center    9 is at  -1.778111 -1.638756 -1.058629
       Atomic Center   10 is at  -1.454029 -1.849731  1.342343
       Atomic Center   11 is at  -2.199363  0.304110  0.406666
       Atomic Center   12 is at  -2.151295  1.378601 -0.678419
       Atomic Center   13 is at  -2.895180  2.442243 -0.110845
       Atomic Center   14 is at   2.865334 -0.693119 -1.940028
       Atomic Center   15 is at   0.539009 -1.372406 -1.874994
       Atomic Center   16 is at   0.136037  0.498072  2.002392
       Atomic Center   17 is at   2.468070  1.163141  1.904322
       Atomic Center   18 is at   4.799355  0.347445 -0.969752
       Atomic Center   19 is at   4.385231  1.805901 -0.061657
       Atomic Center   20 is at   4.844840  0.339584  0.797585
       Atomic Center   21 is at  -2.833433 -1.862258 -0.914795
       Atomic Center   22 is at  -1.650005 -1.017821 -1.940112
       Atomic Center   23 is at  -1.219010 -2.565258 -1.165209
       Atomic Center   24 is at  -2.493295 -2.171482  1.392131
       Atomic Center   25 is at  -1.179034 -1.334337  2.257864
       Atomic Center   26 is at  -0.795893 -2.701790  1.185413
       Atomic Center   27 is at  -3.213855 -0.080733  0.516274
       Atomic Center   28 is at  -1.902104  0.752610  1.352033
       Atomic Center   29 is at  -1.115480  1.671017 -0.885139
       Atomic Center   30 is at  -2.610716  1.025796 -1.608987
       Atomic Center   31 is at  -2.989895  3.156555 -0.749704
 -----------------------------------------------------------------

              Electrostatic Properties (Atomic Units)

 -----------------------------------------------------------------
    Center     Electric         -------- Electric Field --------
               Potential          X             Y             Z
 -----------------------------------------------------------------
    1 Atom    -14.628747      0.003595      0.000903     -0.000115
    2 Atom    -14.637979      0.002463      0.000410     -0.000239
    3 Atom    -14.621199      0.003046     -0.000487     -0.002193
    4 Atom    -14.573342      0.010088      0.002925     -0.000496
    5 Atom    -14.621977      0.002420      0.001345      0.001892
    6 Atom    -14.636977      0.002549      0.000611     -0.000011
    7 Atom    -18.103878     -0.000716      0.000946      0.000632
    8 Atom    -14.665951      0.000643      0.000031     -0.000181
    9 Atom    -14.566703     -0.003136     -0.004646     -0.007406
   10 Atom    -14.570286     -0.000682     -0.005827      0.006771
   11 Atom    -14.569658     -0.005828      0.009396     -0.000082
   12 Atom    -14.572832      0.004709     -0.004957     -0.004699
   13 Atom    -22.232821     -0.018307      0.001406      0.044439
   14 Atom     -0.977523      0.010601     -0.004774     -0.015488
   15 Atom     -0.951632     -0.006677     -0.010027     -0.015357
   16 Atom     -0.950961     -0.009971      0.004970      0.015680
   17 Atom     -0.976307      0.007549      0.009920      0.014838
   18 Atom     -1.008621      0.008580     -0.006115     -0.015045
   19 Atom     -1.003708      0.001663      0.018069      0.000053
   20 Atom     -1.004340      0.009316     -0.006247      0.014322
   21 Atom     -0.928725     -0.018355     -0.004077      0.002062
   22 Atom     -0.929565      0.002003      0.010710     -0.015767
   23 Atom     -0.929820      0.009460     -0.016392     -0.002114
   24 Atom     -0.932685     -0.017959     -0.005817      0.001263
   25 Atom     -0.933872      0.004777      0.008708      0.016375
   26 Atom     -0.934217      0.011514     -0.014994     -0.002348
   27 Atom     -0.941961     -0.017736     -0.006249      0.002193
   28 Atom     -0.943680      0.004748      0.008149      0.016727
   29 Atom     -0.975423      0.017123      0.005405     -0.003359
   30 Atom     -0.972693     -0.007968     -0.005161     -0.015379
   31 Atom     -0.869190     -0.003479      0.020029     -0.015998
 -----------------------------------------------------------------
 -----------------------------------------------------
    Center         ---- Electric Field Gradient ----
                     XX            YY            ZZ
 -----------------------------------------------------
    1 Atom     -500.859876   -501.238259   -500.905304
    2 Atom     -500.862293   -501.155762   -500.889931
    3 Atom     -500.723052   -501.038380   -500.838664
    4 Atom     -501.113594   -500.710884   -500.494582
    5 Atom     -500.700903   -501.021416   -500.829110
    6 Atom     -500.850367   -501.167171   -500.886349
    7 Atom     -812.801486   -812.776925   -812.766902
    8 Atom     -500.339912   -500.195920   -500.168759
    9 Atom     -500.372189   -500.457115   -500.705926
   10 Atom     -500.387579   -500.653595   -500.785961
   11 Atom     -500.730268   -500.879365   -500.512837
   12 Atom     -500.217399   -500.510485   -500.261879
   13 Atom    -1235.577936  -1237.841333  -1236.511804
   14 Atom       -1.822408     -1.697172     -1.974875
   15 Atom       -1.762251     -1.800669     -1.970183
   16 Atom       -1.830593     -1.701352     -1.985706
   17 Atom       -1.751781     -1.787940     -1.949383
   18 Atom       -1.778168     -1.729462     -1.989857
   19 Atom       -1.670392     -2.110171     -1.658199
   20 Atom       -1.778416     -1.714192     -1.952467
   21 Atom       -2.100563     -1.694380     -1.701278
   22 Atom       -1.687426     -1.842489     -1.985914
   23 Atom       -1.801347     -2.003710     -1.693105
   24 Atom       -2.088862     -1.716421     -1.688257
   25 Atom       -1.702257     -1.799997     -2.005082
   26 Atom       -1.833584     -1.948750     -1.696526
   27 Atom       -2.071540     -1.766547     -1.690362
   28 Atom       -1.734879     -1.772330     -2.031655
   29 Atom       -2.091741     -1.750587     -1.720477
   30 Atom       -1.791986     -1.775098     -2.027216
   31 Atom       -1.510257     -1.912563     -1.830606
 -----------------------------------------------------
 -----------------------------------------------------
    Center         ---- Electric Field Gradient ----
                     XY            XZ            YZ
 -----------------------------------------------------
    1 Atom        0.132884     -0.066172      0.234162
    2 Atom        0.106334     -0.047151      0.191167
    3 Atom        0.116959     -0.027385      0.152956
    4 Atom       -0.119210     -0.009245      0.121716
    5 Atom        0.099679     -0.060037      0.132774
    6 Atom        0.103834     -0.065444      0.189466
    7 Atom       -0.022652     -0.025815      0.005153
    8 Atom       -0.043518      0.005923      0.011620
    9 Atom       -0.118580     -0.188874     -0.265576
   10 Atom       -0.051658      0.061065      0.344279
   11 Atom        0.339784      0.107041     -0.077732
   12 Atom        0.222657      0.111355     -0.073274
   13 Atom        1.394858      0.572754      0.339889
   14 Atom        0.055888      0.202353     -0.099121
   15 Atom       -0.096124     -0.131957     -0.195305
   16 Atom        0.054799      0.205112     -0.100580
   17 Atom       -0.095002     -0.132204     -0.187408
   18 Atom        0.065588      0.168269     -0.132299
   19 Atom       -0.031743      0.001858     -0.005651
   20 Atom        0.074688     -0.175102      0.126890
   21 Atom       -0.089430      0.062018      0.002702
   22 Atom       -0.037067      0.040682      0.205649
   23 Atom        0.198995      0.013293     -0.040150
   24 Atom       -0.123368      0.011007      0.016898
   25 Atom       -0.061779     -0.096099     -0.176268
   26 Atom        0.213844      0.048313     -0.045851
   27 Atom       -0.144513      0.039241      0.014471
   28 Atom       -0.041072     -0.116014     -0.154496
   29 Atom       -0.104751      0.077500      0.021908
   30 Atom       -0.051236     -0.155322     -0.121010
   31 Atom        0.075095     -0.027381      0.336785
 -----------------------------------------------------
 -----------------------------------------------------
    Center         ---- Electric Field Gradient ----
                   ----       Eigenvalues       ----
 -----------------------------------------------------
    1 Atom     -501.399891   -500.819198   -500.784350
    2 Atom     -501.287386   -500.831835   -500.788765
    3 Atom     -501.152637   -500.767906   -500.679552
    4 Atom     -501.147105   -500.737129   -500.434826
    5 Atom     -501.121265   -500.761979   -500.668186
    6 Atom     -501.296091   -500.821128   -500.786668
    7 Atom     -812.822554   -812.777973   -812.744787
    8 Atom     -500.352468   -500.188378   -500.163745
    9 Atom     -500.959474   -500.289129   -500.286627
   10 Atom     -501.079605   -500.378429   -500.369102
   11 Atom     -501.177272   -500.510107   -500.435091
   12 Atom     -500.665235   -500.251514   -500.073014
   13 Atom    -1238.507799  -1236.749333  -1234.673941
   14 Atom       -2.143651     -1.687697     -1.663107
   15 Atom       -2.164457     -1.698263     -1.670382
   16 Atom       -2.155990     -1.695039     -1.666623
   17 Atom       -2.140753     -1.685569     -1.662783
   18 Atom       -2.136304     -1.688293     -1.672889
   19 Atom       -2.112517     -1.668600     -1.657645
   20 Atom       -2.115037     -1.670829     -1.659208
   21 Atom       -2.128173     -1.697146     -1.670903
   22 Atom       -2.138612     -1.698831     -1.678386
   23 Atom       -2.129656     -1.695080     -1.673427
   24 Atom       -2.126562     -1.697157     -1.669821
   25 Atom       -2.136456     -1.699695     -1.671185
   26 Atom       -2.122785     -1.691316     -1.664759
   27 Atom       -2.133086     -1.709002     -1.686362
   28 Atom       -2.140697     -1.710442     -1.687725
   29 Atom       -2.136913     -1.720991     -1.704901
   30 Atom       -2.150302     -1.732454     -1.711544
   31 Atom       -2.218675     -1.550110     -1.484642
 -----------------------------------------------------
 -----------------------------------------------------
    Center         ---- Electric Field Gradient ----
                       ( tensor representation )
                   3XX-RR        3YY-RR        3ZZ-RR
 -----------------------------------------------------
    1 Atom        0.141270     -0.237113      0.095842
    2 Atom        0.107036     -0.186434      0.079398
    3 Atom        0.143647     -0.171681      0.028034
    4 Atom       -0.340574      0.062136      0.278438
    5 Atom        0.149574     -0.170940      0.021366
    6 Atom        0.117595     -0.199209      0.081614
    7 Atom       -0.019715      0.004846      0.014869
    8 Atom       -0.105048      0.038944      0.066105
    9 Atom        0.139555      0.054628     -0.194183
   10 Atom        0.221467     -0.044550     -0.176916
   11 Atom       -0.022778     -0.171875      0.194653
   12 Atom        0.112522     -0.180564      0.068042
   13 Atom        1.065755     -1.197642      0.131887
   14 Atom        0.009077      0.134313     -0.143390
   15 Atom        0.082116      0.043699     -0.125815
   16 Atom        0.008624      0.137865     -0.146489
   17 Atom        0.077920      0.041761     -0.119682
   18 Atom        0.054328      0.103034     -0.157362
   19 Atom        0.142528     -0.297250      0.154722
   20 Atom        0.036609      0.100833     -0.137442
   21 Atom       -0.268489      0.137694      0.130796
   22 Atom        0.151183     -0.003879     -0.147304
   23 Atom        0.031374     -0.170989      0.139615
   24 Atom       -0.257682      0.114759      0.142923
   25 Atom        0.133522      0.035781     -0.169303
   26 Atom       -0.007298     -0.122463      0.129761
   27 Atom       -0.228724      0.076270      0.152454
   28 Atom        0.111409      0.073958     -0.185367
   29 Atom       -0.237473      0.103681      0.133792
   30 Atom        0.072781      0.089669     -0.162449
   31 Atom        0.240885     -0.161421     -0.079464
 -----------------------------------------------------
 -----------------------------------------------------
    Center         ---- Electric Field Gradient ----
                       ( tensor representation )
                   ----       Eigenvalues       ----
 -----------------------------------------------------
    1 Atom       -0.398745      0.181948      0.216796
    2 Atom       -0.318057      0.137493      0.180564
    3 Atom       -0.285938      0.098792      0.187146
    4 Atom       -0.374085      0.035891      0.338194
    5 Atom       -0.270788      0.088498      0.182290
    6 Atom       -0.328129      0.146835      0.181294
    7 Atom       -0.040782      0.003798      0.036984
    8 Atom       -0.117604      0.046485      0.071119
    9 Atom       -0.447730      0.222614      0.225116
   10 Atom       -0.470560      0.230616      0.239943
   11 Atom       -0.469782      0.197383      0.272399
   12 Atom       -0.335314      0.078407      0.256907
   13 Atom       -1.864108     -0.105642      1.969750
   14 Atom       -0.312166      0.143787      0.168378
   15 Atom       -0.320090      0.146104      0.173986
   16 Atom       -0.316772      0.144178      0.172594
   17 Atom       -0.311051      0.144132      0.166919
   18 Atom       -0.303809      0.144202      0.159607
   19 Atom       -0.299596      0.144321      0.155275
   20 Atom       -0.300012      0.144196      0.155816
   21 Atom       -0.296099      0.134928      0.161171
   22 Atom       -0.300002      0.139778      0.160224
   23 Atom       -0.296935      0.137641      0.159294
   24 Atom       -0.295382      0.134024      0.161359
   25 Atom       -0.300677      0.136084      0.164593
   26 Atom       -0.296499      0.134971      0.161528
   27 Atom       -0.290269      0.133815      0.156455
   28 Atom       -0.294409      0.135846      0.158563
   29 Atom       -0.282644      0.133277      0.149367
   30 Atom       -0.285535      0.132313      0.153223
   31 Atom       -0.467533      0.201032      0.266500
 -----------------------------------------------------

 Test job not archived.
 1|1|UNPC-NP-ALMACH|FOpt|RB3LYP|6-311++G(d,p)|C11H18N1O1(1+)|HERA|15-Au
 g-2018|0||# RB3LYP/6-311++G** Opt Test prop=EFG||C11NH18O||1,1|C,1.208
 672053,1.8068144479,0.492103278|C,1.7306777674,0.5191567653,0.61853273
 02|C,0.9063021729,-0.5933763585,0.7970310084|C,-0.4709014314,-0.419785
 8573,0.850422807|C,-1.0209911633,0.857437844,0.7313573144|C,-0.1847689
 234,1.9511322986,0.5528868165|N,-1.4071856554,-1.5886751963,1.06288383
 54|C,2.0992481529,3.0048450073,0.2953758248|C,-0.6847539259,-2.9105840
 753,1.1436551224|C,-2.1361787028,-1.4010232839,2.3801000582|C,-2.45268
 77361,-1.6650219405,-0.0489270068|C,-1.8911662419,-1.8353894324,-1.459
 5724339|O,-3.0313672842,-1.6632855511,-2.2824716105|H,2.8032350578,0.3
 679041017,0.5796295991|H,1.3714576447,-1.563758028,0.8896970803|H,-2.0
 899003203,1.0246875075,0.7707705586|H,-0.6275181055,2.9366180922,0.460
 4925032|H,3.1537875982,2.7291127985,0.3218458555|H,1.8988020198,3.4841
 41065,-0.667180235|H,1.9239651076,3.7536753551,1.0724581574|H,-1.43519
 23983,-3.6906921492,1.2559925458|H,-0.112193375,-3.0782849733,0.236442
 3577|H,-0.0272709124,-2.9077930978,2.0097198271|H,-2.7864474142,-2.259
 1992946,2.5436879373|H,-2.7252146217,-0.4896055078,2.3378364932|H,-1.3
 941529447,-1.3256195674,3.1722404122|H,-3.1148764462,-2.495069744,0.19
 97457714|H,-3.0330405723,-0.7456137897,-0.0155462596|H,-1.1244593063,-
 1.079064888,-1.6627607274|H,-1.4505605871,-2.8298160112,-1.5955017229|
 H,-2.800832506,-1.8233905366,-3.2036518978||Version=EM64W-G09RevD.01|S
 tate=1-A|HF=-559.8894789|RMSD=5.199e-009|RMSF=2.179e-006|Dipole=-0.173
 7895,-1.3380511,0.6453621|Quadrupole=-3.6842287,6.5434352,-2.8592065,6
 .3259582,-2.8536138,-1.2468107|PG=C01 [X(C11H18N1O1)]||@


 ADAM SMITH SAID, "THE REAL PRICE OF ANYTHING IS THE TOIL AND TROUBLE
 OF ACQUIRING IT."  BUT IN ALL UNDERTAKINGS WITH NATURE WE SHOULD FIRST
 READ CAREFULLY THE SMALL PRINT IN THE CONTRACT. THIS MIGHT DISCLOSE
 THAT THE REAL PRICE IS TO BE PAID BY THOSE WHO INHERIT THE DEPLETION
 AND DESPOILATION THAT FOLLOWS.
                               -- E. R. HARRISON IN "COSMOLOGY" (1980)
 Job cpu time:       0 days  0 hours 50 minutes 35.0 seconds.
 File lengths (MBytes):  RWF=     77 Int=      0 D2E=      0 Chk=     12 Scr=      1
 Normal termination of Gaussian 09 at Wed Aug 15 17:53:21 2018.
