 Entering Link 1 = C:\G09W\l1.exe PID=     34528.
  
 Copyright (c) 1988,1990,1992,1993,1995,1998,2003,2009,2013,
            Gaussian, Inc.  All Rights Reserved.
  
 This is part of the Gaussian(R) 09 program.  It is based on
 the Gaussian(R) 03 system (copyright 2003, Gaussian, Inc.),
 the Gaussian(R) 98 system (copyright 1998, Gaussian, Inc.),
 the Gaussian(R) 94 system (copyright 1995, Gaussian, Inc.),
 the Gaussian 92(TM) system (copyright 1992, Gaussian, Inc.),
 the Gaussian 90(TM) system (copyright 1990, Gaussian, Inc.),
 the Gaussian 88(TM) system (copyright 1988, Gaussian, Inc.),
 the Gaussian 86(TM) system (copyright 1986, Carnegie Mellon
 University), and the Gaussian 82(TM) system (copyright 1983,
 Carnegie Mellon University). Gaussian is a federally registered
 trademark of Gaussian, Inc.
  
 This software contains proprietary and confidential information,
 including trade secrets, belonging to Gaussian, Inc.
  
 This software is provided under written license and may be
 used, copied, transmitted, or stored only in accord with that
 written license.
  
 The following legend is applicable only to US Government
 contracts under FAR:
  
                    RESTRICTED RIGHTS LEGEND
  
 Use, reproduction and disclosure by the US Government is
 subject to restrictions as set forth in subparagraphs (a)
 and (c) of the Commercial Computer Software - Restricted
 Rights clause in FAR 52.227-19.
  
 Gaussian, Inc.
 340 Quinnipiac St., Bldg. 40, Wallingford CT 06492
  
  
 ---------------------------------------------------------------
 Warning -- This program may not be used in any manner that
 competes with the business of Gaussian, Inc. or will provide
 assistance to any competitor of Gaussian, Inc.  The licensee
 of this program is prohibited from giving any competitor of
 Gaussian, Inc. access to this program.  By using this program,
 the user acknowledges that Gaussian, Inc. is engaged in the
 business of creating and licensing software in the field of
 computational chemistry and represents and warrants to the
 licensee that it is not a competitor of Gaussian, Inc. and that
 it will not use this program in any manner prohibited above.
 ---------------------------------------------------------------
  

 Cite this work as:
 Gaussian 09, Revision D.01,
 M. J. Frisch, G. W. Trucks, H. B. Schlegel, G. E. Scuseria, 
 M. A. Robb, J. R. Cheeseman, G. Scalmani, V. Barone, B. Mennucci, 
 G. A. Petersson, H. Nakatsuji, M. Caricato, X. Li, H. P. Hratchian, 
 A. F. Izmaylov, J. Bloino, G. Zheng, J. L. Sonnenberg, M. Hada, 
 M. Ehara, K. Toyota, R. Fukuda, J. Hasegawa, M. Ishida, T. Nakajima, 
 Y. Honda, O. Kitao, H. Nakai, T. Vreven, J. A. Montgomery, Jr., 
 J. E. Peralta, F. Ogliaro, M. Bearpark, J. J. Heyd, E. Brothers, 
 K. N. Kudin, V. N. Staroverov, T. Keith, R. Kobayashi, J. Normand, 
 K. Raghavachari, A. Rendell, J. C. Burant, S. S. Iyengar, J. Tomasi, 
 M. Cossi, N. Rega, J. M. Millam, M. Klene, J. E. Knox, J. B. Cross, 
 V. Bakken, C. Adamo, J. Jaramillo, R. Gomperts, R. E. Stratmann, 
 O. Yazyev, A. J. Austin, R. Cammi, C. Pomelli, J. W. Ochterski, 
 R. L. Martin, K. Morokuma, V. G. Zakrzewski, G. A. Voth, 
 P. Salvador, J. J. Dannenberg, S. Dapprich, A. D. Daniels, 
 O. Farkas, J. B. Foresman, J. V. Ortiz, J. Cioslowski, 
 and D. J. Fox, Gaussian, Inc., Wallingford CT, 2013.
 
 ******************************************
 Gaussian 09:  EM64W-G09RevD.01 13-Apr-2013
                15-Aug-2018 
 ******************************************
 %Chk=Anth_371.chk
 %Mem=64GB
 %NProcShared=20
 Will use up to   20 processors via shared memory.
 -------------------------------------
 # RB3LYP/6-311++G** Opt Test prop=EFG
 -------------------------------------
 1/14=-1,18=20,19=15,26=3,38=1/1,3;
 2/9=110,12=2,17=6,18=5,40=1/2;
 3/5=4,6=6,7=1111,11=2,16=1,25=1,30=1,71=1,74=-5,116=1/1,2,3;
 4//1;
 5/5=2,38=5/2;
 6/7=2,8=2,9=2,10=2,14=1,28=1/1,2;
 7//1,2,3,16;
 1/14=-1,18=20,19=15,26=3/3(2);
 2/9=110/2;
 99//99;
 2/9=110/2;
 3/5=4,6=6,7=1111,11=2,16=1,25=1,30=1,71=1,74=-5,116=1/1,2,3;
 4/5=5,16=3,69=1/1;
 5/5=2,38=5/2;
 7//1,2,3,16;
 1/14=-1,18=20,19=15,26=3/3(-5);
 2/9=110/2;
 6/7=2,8=2,9=2,10=2,14=1,19=2,28=1/1,2;
 99/9=1/99;
 -------
 C8NH20O
 -------
 Symbolic Z-matrix:
 Charge =  1 Multiplicity = 1
 C                    -2.3321   -0.43882  -0.65658 
 C                    -1.18804   0.58346  -0.57647 
 N                     0.21088  -0.04024  -0.51082 
 C                     0.48981  -0.91614  -1.73731 
 C                     0.39728  -0.17089  -3.07754 
 C                     1.18911   1.13706  -0.4284 
 C                     2.66767   0.72504  -0.3609 
 C                     0.35397  -0.96116   0.70633 
 C                     0.12635  -0.27808   2.0579 
 O                     0.22001  -1.26412   3.07037 
 H                    -3.31096   0.09268  -0.70591 
 H                    -2.28425  -1.07395  -1.56765 
 H                    -2.38876  -1.09781   0.23697 
 H                    -1.36693   1.23908   0.30655 
 H                    -1.26989   1.26927  -1.45087 
 H                    -0.21166  -1.78133  -1.76856 
 H                     1.49975  -1.38132  -1.66462 
 H                     0.61851  -0.87164  -3.91601 
 H                     1.13632   0.65466  -3.16718 
 H                    -0.61804   0.23428  -3.27944 
 H                     0.96226   1.77031   0.4603 
 H                     1.05552   1.81958  -1.29907 
 H                     3.31096   1.63355  -0.299 
 H                     3.00603   0.17369  -1.26495 
 H                     2.90948   0.11901   0.53906 
 H                    -0.3514   -1.81958   0.62225 
 H                     1.36282  -1.43393   0.72163 
 H                     0.89139   0.49334   2.2918 
 H                    -0.88849   0.16405   2.1533 
 H                    -0.07449  -0.91866   3.91601 
 

 GradGradGradGradGradGradGradGradGradGradGradGradGradGradGradGradGradGrad
 Berny optimization.
 Initialization pass.
                           ----------------------------
                           !    Initial Parameters    !
                           ! (Angstroms and Degrees)  !
 --------------------------                            --------------------------
 ! Name  Definition              Value          Derivative Info.                !
 --------------------------------------------------------------------------------
 ! R1    R(1,2)                  1.5363         estimate D2E/DX2                !
 ! R2    R(1,11)                 1.1149         estimate D2E/DX2                !
 ! R3    R(1,12)                 1.1116         estimate D2E/DX2                !
 ! R4    R(1,13)                 1.1117         estimate D2E/DX2                !
 ! R5    R(2,3)                  1.5331         estimate D2E/DX2                !
 ! R6    R(2,14)                 1.1143         estimate D2E/DX2                !
 ! R7    R(2,15)                 1.1143         estimate D2E/DX2                !
 ! R8    R(3,4)                  1.5327         estimate D2E/DX2                !
 ! R9    R(3,6)                  1.5329         estimate D2E/DX2                !
 ! R10   R(3,8)                  1.533          estimate D2E/DX2                !
 ! R11   R(4,5)                  1.5363         estimate D2E/DX2                !
 ! R12   R(4,16)                 1.1143         estimate D2E/DX2                !
 ! R13   R(4,17)                 1.1143         estimate D2E/DX2                !
 ! R14   R(5,18)                 1.1149         estimate D2E/DX2                !
 ! R15   R(5,19)                 1.1116         estimate D2E/DX2                !
 ! R16   R(5,20)                 1.1117         estimate D2E/DX2                !
 ! R17   R(6,7)                  1.5364         estimate D2E/DX2                !
 ! R18   R(6,21)                 1.1146         estimate D2E/DX2                !
 ! R19   R(6,22)                 1.1143         estimate D2E/DX2                !
 ! R20   R(7,23)                 1.1149         estimate D2E/DX2                !
 ! R21   R(7,24)                 1.1117         estimate D2E/DX2                !
 ! R22   R(7,25)                 1.1116         estimate D2E/DX2                !
 ! R23   R(8,9)                  1.5314         estimate D2E/DX2                !
 ! R24   R(8,26)                 1.1142         estimate D2E/DX2                !
 ! R25   R(8,27)                 1.1142         estimate D2E/DX2                !
 ! R26   R(9,10)                 1.4164         estimate D2E/DX2                !
 ! R27   R(9,28)                 1.1113         estimate D2E/DX2                !
 ! R28   R(9,29)                 1.1111         estimate D2E/DX2                !
 ! R29   R(10,30)                0.9598         estimate D2E/DX2                !
 ! A1    A(2,1,11)             109.8089         estimate D2E/DX2                !
 ! A2    A(2,1,12)             113.0077         estimate D2E/DX2                !
 ! A3    A(2,1,13)             112.9841         estimate D2E/DX2                !
 ! A4    A(11,1,12)            105.8958         estimate D2E/DX2                !
 ! A5    A(11,1,13)            105.8663         estimate D2E/DX2                !
 ! A6    A(12,1,13)            108.7997         estimate D2E/DX2                !
 ! A7    A(1,2,3)              114.2697         estimate D2E/DX2                !
 ! A8    A(1,2,14)             108.2571         estimate D2E/DX2                !
 ! A9    A(1,2,15)             108.2955         estimate D2E/DX2                !
 ! A10   A(3,2,14)             110.6063         estimate D2E/DX2                !
 ! A11   A(3,2,15)             110.5504         estimate D2E/DX2                !
 ! A12   A(14,2,15)            104.3555         estimate D2E/DX2                !
 ! A13   A(2,3,4)              111.3635         estimate D2E/DX2                !
 ! A14   A(2,3,6)              105.7933         estimate D2E/DX2                !
 ! A15   A(2,3,8)              111.3199         estimate D2E/DX2                !
 ! A16   A(4,3,6)              111.4557         estimate D2E/DX2                !
 ! A17   A(4,3,8)              105.9649         estimate D2E/DX2                !
 ! A18   A(6,3,8)              111.0467         estimate D2E/DX2                !
 ! A19   A(3,4,5)              114.1986         estimate D2E/DX2                !
 ! A20   A(3,4,16)             110.5849         estimate D2E/DX2                !
 ! A21   A(3,4,17)             110.5675         estimate D2E/DX2                !
 ! A22   A(5,4,16)             108.3174         estimate D2E/DX2                !
 ! A23   A(5,4,17)             108.301          estimate D2E/DX2                !
 ! A24   A(16,4,17)            104.3746         estimate D2E/DX2                !
 ! A25   A(4,5,18)             109.8302         estimate D2E/DX2                !
 ! A26   A(4,5,19)             112.9894         estimate D2E/DX2                !
 ! A27   A(4,5,20)             112.9705         estimate D2E/DX2                !
 ! A28   A(18,5,19)            105.9149         estimate D2E/DX2                !
 ! A29   A(18,5,20)            105.8854         estimate D2E/DX2                !
 ! A30   A(19,5,20)            108.7767         estimate D2E/DX2                !
 ! A31   A(3,6,7)              114.2392         estimate D2E/DX2                !
 ! A32   A(3,6,21)             110.4468         estimate D2E/DX2                !
 ! A33   A(3,6,22)             110.6032         estimate D2E/DX2                !
 ! A34   A(7,6,21)             108.2527         estimate D2E/DX2                !
 ! A35   A(7,6,22)             108.2978         estimate D2E/DX2                !
 ! A36   A(21,6,22)            104.5132         estimate D2E/DX2                !
 ! A37   A(6,7,23)             109.8273         estimate D2E/DX2                !
 ! A38   A(6,7,24)             112.9665         estimate D2E/DX2                !
 ! A39   A(6,7,25)             113.0242         estimate D2E/DX2                !
 ! A40   A(23,7,24)            105.884          estimate D2E/DX2                !
 ! A41   A(23,7,25)            105.8903         estimate D2E/DX2                !
 ! A42   A(24,7,25)            108.7711         estimate D2E/DX2                !
 ! A43   A(3,8,9)              114.7659         estimate D2E/DX2                !
 ! A44   A(3,8,26)             110.1101         estimate D2E/DX2                !
 ! A45   A(3,8,27)             110.5065         estimate D2E/DX2                !
 ! A46   A(9,8,26)             108.43           estimate D2E/DX2                !
 ! A47   A(9,8,27)             108.1626         estimate D2E/DX2                !
 ! A48   A(26,8,27)            104.3193         estimate D2E/DX2                !
 ! A49   A(8,9,10)             108.0917         estimate D2E/DX2                !
 ! A50   A(8,9,28)             113.1446         estimate D2E/DX2                !
 ! A51   A(8,9,29)             112.8946         estimate D2E/DX2                !
 ! A52   A(10,9,28)            106.6941         estimate D2E/DX2                !
 ! A53   A(10,9,29)            106.0243         estimate D2E/DX2                !
 ! A54   A(28,9,29)            109.5413         estimate D2E/DX2                !
 ! A55   A(9,10,30)            111.036          estimate D2E/DX2                !
 ! D1    D(11,1,2,3)          -179.7251         estimate D2E/DX2                !
 ! D2    D(11,1,2,14)           56.5456         estimate D2E/DX2                !
 ! D3    D(11,1,2,15)          -56.0392         estimate D2E/DX2                !
 ! D4    D(12,1,2,3)           -61.7412         estimate D2E/DX2                !
 ! D5    D(12,1,2,14)          174.5296         estimate D2E/DX2                !
 ! D6    D(12,1,2,15)           61.9447         estimate D2E/DX2                !
 ! D7    D(13,1,2,3)            62.3429         estimate D2E/DX2                !
 ! D8    D(13,1,2,14)          -61.3863         estimate D2E/DX2                !
 ! D9    D(13,1,2,15)         -173.9712         estimate D2E/DX2                !
 ! D10   D(1,2,3,4)             59.0841         estimate D2E/DX2                !
 ! D11   D(1,2,3,6)           -179.663          estimate D2E/DX2                !
 ! D12   D(1,2,3,8)            -58.9309         estimate D2E/DX2                !
 ! D13   D(14,2,3,4)          -178.4584         estimate D2E/DX2                !
 ! D14   D(14,2,3,6)           -57.2055         estimate D2E/DX2                !
 ! D15   D(14,2,3,8)            63.5266         estimate D2E/DX2                !
 ! D16   D(15,2,3,4)           -63.3809         estimate D2E/DX2                !
 ! D17   D(15,2,3,6)            57.872          estimate D2E/DX2                !
 ! D18   D(15,2,3,8)           178.6042         estimate D2E/DX2                !
 ! D19   D(2,3,4,5)             58.8827         estimate D2E/DX2                !
 ! D20   D(2,3,4,16)           -63.5856         estimate D2E/DX2                !
 ! D21   D(2,3,4,17)          -178.6839         estimate D2E/DX2                !
 ! D22   D(6,3,4,5)            -59.0051         estimate D2E/DX2                !
 ! D23   D(6,3,4,16)           178.5265         estimate D2E/DX2                !
 ! D24   D(6,3,4,17)            63.4282         estimate D2E/DX2                !
 ! D25   D(8,3,4,5)           -179.9214         estimate D2E/DX2                !
 ! D26   D(8,3,4,16)            57.6103         estimate D2E/DX2                !
 ! D27   D(8,3,4,17)           -57.488          estimate D2E/DX2                !
 ! D28   D(2,3,6,7)           -179.6948         estimate D2E/DX2                !
 ! D29   D(2,3,6,21)            57.9986         estimate D2E/DX2                !
 ! D30   D(2,3,6,22)           -57.2084         estimate D2E/DX2                !
 ! D31   D(4,3,6,7)            -58.5016         estimate D2E/DX2                !
 ! D32   D(4,3,6,21)           179.1919         estimate D2E/DX2                !
 ! D33   D(4,3,6,22)            63.9848         estimate D2E/DX2                !
 ! D34   D(8,3,6,7)             59.3956         estimate D2E/DX2                !
 ! D35   D(8,3,6,21)           -62.911          estimate D2E/DX2                !
 ! D36   D(8,3,6,22)          -178.118          estimate D2E/DX2                !
 ! D37   D(2,3,8,9)            -59.3199         estimate D2E/DX2                !
 ! D38   D(2,3,8,26)            63.3427         estimate D2E/DX2                !
 ! D39   D(2,3,8,27)           178.0603         estimate D2E/DX2                !
 ! D40   D(4,3,8,9)            179.4561         estimate D2E/DX2                !
 ! D41   D(4,3,8,26)           -57.8812         estimate D2E/DX2                !
 ! D42   D(4,3,8,27)            56.8363         estimate D2E/DX2                !
 ! D43   D(6,3,8,9)             58.2756         estimate D2E/DX2                !
 ! D44   D(6,3,8,26)          -179.0617         estimate D2E/DX2                !
 ! D45   D(6,3,8,27)           -64.3441         estimate D2E/DX2                !
 ! D46   D(3,4,5,18)           179.6421         estimate D2E/DX2                !
 ! D47   D(3,4,5,19)            61.6313         estimate D2E/DX2                !
 ! D48   D(3,4,5,20)           -62.3963         estimate D2E/DX2                !
 ! D49   D(16,4,5,18)          -56.6602         estimate D2E/DX2                !
 ! D50   D(16,4,5,19)         -174.671          estimate D2E/DX2                !
 ! D51   D(16,4,5,20)           61.3014         estimate D2E/DX2                !
 ! D52   D(17,4,5,18)           55.9795         estimate D2E/DX2                !
 ! D53   D(17,4,5,19)          -62.0313         estimate D2E/DX2                !
 ! D54   D(17,4,5,20)          173.9411         estimate D2E/DX2                !
 ! D55   D(3,6,7,23)          -179.7705         estimate D2E/DX2                !
 ! D56   D(3,6,7,24)            62.2741         estimate D2E/DX2                !
 ! D57   D(3,6,7,25)           -61.7706         estimate D2E/DX2                !
 ! D58   D(21,6,7,23)          -56.2729         estimate D2E/DX2                !
 ! D59   D(21,6,7,24)         -174.2283         estimate D2E/DX2                !
 ! D60   D(21,6,7,25)           61.727          estimate D2E/DX2                !
 ! D61   D(22,6,7,23)           56.4946         estimate D2E/DX2                !
 ! D62   D(22,6,7,24)          -61.4609         estimate D2E/DX2                !
 ! D63   D(22,6,7,25)          174.4945         estimate D2E/DX2                !
 ! D64   D(3,8,9,10)           176.881          estimate D2E/DX2                !
 ! D65   D(3,8,9,28)           -65.1949         estimate D2E/DX2                !
 ! D66   D(3,8,9,29)            59.9319         estimate D2E/DX2                !
 ! D67   D(26,8,9,10)           53.3178         estimate D2E/DX2                !
 ! D68   D(26,8,9,28)          171.2418         estimate D2E/DX2                !
 ! D69   D(26,8,9,29)          -63.6314         estimate D2E/DX2                !
 ! D70   D(27,8,9,10)          -59.2445         estimate D2E/DX2                !
 ! D71   D(27,8,9,28)           58.6795         estimate D2E/DX2                !
 ! D72   D(27,8,9,29)         -176.1937         estimate D2E/DX2                !
 ! D73   D(8,9,10,30)         -169.4837         estimate D2E/DX2                !
 ! D74   D(28,9,10,30)          68.5334         estimate D2E/DX2                !
 ! D75   D(29,9,10,30)         -48.1753         estimate D2E/DX2                !
 --------------------------------------------------------------------------------
 Trust Radius=3.00D-01 FncErr=1.00D-07 GrdErr=1.00D-06
 Number of steps in this run=    169 maximum allowed number of steps=    180.
 GradGradGradGradGradGradGradGradGradGradGradGradGradGradGradGradGradGrad

                          Input orientation:                          
 ---------------------------------------------------------------------
 Center     Atomic      Atomic             Coordinates (Angstroms)
 Number     Number       Type             X           Y           Z
 ---------------------------------------------------------------------
      1          6           0       -2.332097   -0.438820   -0.656576
      2          6           0       -1.188038    0.583461   -0.576467
      3          7           0        0.210879   -0.040238   -0.510817
      4          6           0        0.489814   -0.916140   -1.737307
      5          6           0        0.397283   -0.170889   -3.077538
      6          6           0        1.189111    1.137056   -0.428403
      7          6           0        2.667670    0.725043   -0.360898
      8          6           0        0.353968   -0.961158    0.706326
      9          6           0        0.126350   -0.278081    2.057897
     10          8           0        0.220009   -1.264120    3.070370
     11          1           0       -3.310957    0.092680   -0.705914
     12          1           0       -2.284246   -1.073950   -1.567651
     13          1           0       -2.388764   -1.097806    0.236968
     14          1           0       -1.366933    1.239079    0.306549
     15          1           0       -1.269892    1.269272   -1.450865
     16          1           0       -0.211662   -1.781334   -1.768555
     17          1           0        1.499754   -1.381321   -1.664620
     18          1           0        0.618507   -0.871635   -3.916012
     19          1           0        1.136315    0.654661   -3.167179
     20          1           0       -0.618043    0.234281   -3.279442
     21          1           0        0.962255    1.770307    0.460296
     22          1           0        1.055520    1.819577   -1.299073
     23          1           0        3.310957    1.633547   -0.298997
     24          1           0        3.006027    0.173685   -1.264946
     25          1           0        2.909477    0.119005    0.539060
     26          1           0       -0.351397   -1.819577    0.622254
     27          1           0        1.362819   -1.433932    0.721631
     28          1           0        0.891392    0.493339    2.291800
     29          1           0       -0.888494    0.164045    2.153295
     30          1           0       -0.074486   -0.918659    3.916012
 ---------------------------------------------------------------------
                    Distance matrix (angstroms):
                    1          2          3          4          5
     1  C    0.000000
     2  C    1.536342   0.000000
     3  N    2.578147   1.533062   0.000000
     4  C    3.059248   2.532102   1.532738   0.000000
     5  C    3.658191   3.055756   2.576795   1.536288   0.000000
     6  C    3.864499   2.445246   1.532890   2.533350   3.058697
     7  C    5.141952   3.864324   2.577587   3.054675   3.652052
     8  C    3.057006   2.531637   1.532973   2.447820   3.865751
     9  C    3.665810   3.067531   2.581086   3.865592   5.143694
    10  O    4.591785   4.323838   3.784557   4.827799   6.246867
    11  H    1.114941   2.182752   3.529739   4.065384   4.409661
    12  H    1.111637   2.220615   2.900191   2.783720   3.207160
    13  H    1.111708   2.220378   2.904441   3.495279   4.428000
    14  H    2.162058   1.114251   2.189573   3.502831   4.068478
    15  H    2.162580   1.114275   2.188879   2.820397   2.738540
    16  H    2.745011   2.822524   2.189032   1.114274   2.162818
    17  H    4.072781   3.502666   2.188827   1.114296   2.162620
    18  H    4.417841   4.066137   3.528843   2.182956   1.114910
    19  H    4.419130   3.481304   2.897512   2.220341   1.111637
    20  H    3.204758   2.784402   2.903060   2.220134   1.111672
    21  H    4.120728   2.665941   2.187624   3.502807   4.074764
    22  H    4.121785   2.661521   2.189447   2.827759   2.749212
    23  H    6.022178   4.628242   3.529434   4.065524   4.412004
    24  H    5.407480   4.269906   2.902986   2.782476   3.195272
    25  H    5.405073   4.271972   2.900005   3.479675   4.413042
    26  H    2.732228   2.812737   2.183129   2.662961   4.119121
    27  H    4.067199   3.501686   2.188213   2.660192   4.118400
    28  H    4.466847   3.543883   2.932996   4.287377   5.432783
    29  H    3.216024   2.777992   2.889264   4.266534   5.396945
    30  H    5.122071   4.866080   4.522153   5.681413   7.049218
                    6          7          8          9         10
     6  C    0.000000
     7  C    1.536375   0.000000
     8  C    2.527365   3.055398   0.000000
     9  C    3.051846   3.648991   1.531388   0.000000
    10  O    4.352725   4.660624   2.387140   1.416385   0.000000
    11  H    4.627996   6.021868   4.066531   4.426194   5.344993
    12  H    4.272077   5.405007   3.484805   4.425944   5.274343
    13  H    4.270658   5.408119   2.785956   3.211469   3.855065
    14  H    2.661564   4.121619   2.821766   2.756608   4.052542
    15  H    2.666384   4.121724   3.502173   4.081079   5.392536
    16  H    3.503594   4.068658   2.667895   4.125016   4.885596
    17  H    2.822579   2.738702   2.666598   4.118314   4.906283
    18  H    4.064953   4.403099   4.630767   6.023464   7.008736
    19  H    2.781436   3.197689   4.269307   5.402912   6.590019
    20  H    3.494171   4.422065   4.273199   5.413301   6.577815
    21  H    1.114566   2.162262   2.809172   2.728912   4.070769
    22  H    1.114337   2.162685   3.499470   4.066051   5.412883
    23  H    2.182998   1.114912   4.060413   4.398976   5.413231
    24  H    2.220151   1.111658   3.493880   4.420172   5.350154
    25  H    2.220827   1.111610   2.779453   3.195362   3.943831
    26  H    3.495529   4.068961   1.114222   2.159982   2.574550
    27  H    2.821831   2.745119   1.114240   2.156491   2.617523
    28  H    2.811141   3.200884   2.217682   1.111345   2.036072
    29  H    3.453745   4.391149   2.214388   1.111074   2.027180
    30  H    4.969566   5.339769   3.238435   1.975669   0.959782
                   11         12         13         14         15
    11  H    0.000000
    12  H    1.777006   0.000000
    13  H    1.776717   1.807801   0.000000
    14  H    2.473569   3.115155   2.551472   0.000000
    15  H    2.470884   2.556021   3.115078   1.760350   0.000000
    16  H    3.774489   2.199172   3.037944   3.842343   3.244530
    17  H    5.121986   3.797701   4.337855   4.355445   3.839567
    18  H    5.164816   3.739212   5.132453   5.121241   3.771801
    19  H    5.113891   4.152929   5.204377   4.321410   3.018826
    20  H    3.727584   2.723588   4.156326   3.798656   2.199956
    21  H    4.736541   4.768872   4.416478   2.393942   2.980948
    22  H    4.732878   4.427038   4.767980   2.963660   2.394456
    23  H    6.810991   6.343999   6.343057   4.733386   4.737475
    24  H    6.342189   5.443823   5.742491   4.767330   4.417959
    25  H    6.343852   5.730282   5.444561   4.426772   4.769700
    26  H    3.765601   3.014556   2.195510   3.238265   3.831768
    27  H    5.119825   4.321051   3.797664   3.843023   4.354104
    28  H    5.177505   5.237980   4.184913   3.097964   4.390986
    29  H    3.748132   4.162475   2.741421   2.189765   3.789058
    30  H    5.732343   5.914196   4.350097   4.399372   5.917720
                   16         17         18         19         20
    16  H    0.000000
    17  H    1.760613   0.000000
    18  H    2.475541   2.470859   0.000000
    19  H    3.115648   2.556363   1.777204   0.000000
    20  H    2.551593   3.114945   1.776887   1.807511   0.000000
    21  H    4.354310   3.838871   5.123484   3.799150   4.340778
    22  H    3.846131   3.252186   3.779150   2.203038   3.039052
    23  H    5.121509   3.772905   5.158296   3.730114   5.126211
    24  H    3.798584   2.201509   3.717674   2.710286   4.146776
    25  H    4.321792   3.015709   5.106621   4.143337   5.199773
    26  H    2.395194   2.974663   4.736577   4.763921   4.417314
    27  H    2.966598   2.390756   4.730530   4.419996   4.766061
    28  H    4.783027   4.420149   6.361961   5.466851   5.777910
    29  H    4.429843   4.761130   6.338783   5.713843   5.439918
    30  H    5.751289   5.816850   7.862764   7.356152   7.307481
                   21         22         23         24         25
    21  H    0.000000
    22  H    1.762528   0.000000
    23  H    2.472171   2.474218   0.000000
    24  H    3.114910   2.552372   1.776862   0.000000
    25  H    2.554344   3.115740   1.776897   1.807415   0.000000
    26  H    3.826118   4.349064   5.117187   4.336694   3.794512
    27  H    3.239737   3.842265   3.774434   3.038265   2.199340
    28  H    2.233848   3.831477   3.723788   4.150217   2.699054
    29  H    2.978522   4.294045   5.080213   5.181868   4.127029
    30  H    4.499705   5.997663   5.978401   6.125774   4.624347
                   26         27         28         29         30
    26  H    0.000000
    27  H    1.759868   0.000000
    28  H    3.111509   2.530227   0.000000
    29  H    2.562678   3.109920   1.815382   0.000000
    30  H    3.425956   3.540540   2.358967   2.223067   0.000000
 Stoichiometry    C8H20NO(1+)
 Framework group  C1[X(C8H20NO)]
 Deg. of freedom    84
 Full point group                 C1      NOp   1
 Largest Abelian subgroup         C1      NOp   1
 Largest concise Abelian subgroup C1      NOp   1
                         Standard orientation:                         
 ---------------------------------------------------------------------
 Center     Atomic      Atomic             Coordinates (Angstroms)
 Number     Number       Type             X           Y           Z
 ---------------------------------------------------------------------
      1          6           0        0.343829    2.572293    0.250817
      2          6           0        0.481403    1.224741    0.975748
      3          7           0        0.373188    0.001538    0.057956
      4          6           0        1.449531    0.025100   -1.033015
      5          6           0        2.888989    0.053298   -0.496968
      6          6           0        0.526989   -1.220075    0.971059
      7          6           0        0.455138   -2.568438    0.238118
      8          6           0       -0.971736   -0.026442   -0.677163
      9          6           0       -2.200899   -0.066321    0.235370
     10          8           0       -3.356929   -0.015419   -0.581422
     11          1           0        0.438544    3.407058    0.983818
     12          1           0        1.139192    2.741044   -0.507246
     13          1           0       -0.647543    2.704940   -0.234447
     14          1           0       -0.288473    1.180854    1.780061
     15          1           0        1.452469    1.219052    1.522197
     16          1           0        1.308347    0.903618   -1.703745
     17          1           0        1.344030   -0.856631   -1.706123
     18          1           0        3.609334    0.062715   -1.347873
     19          1           0        3.144370   -0.843184    0.108702
     20          1           0        3.111729    0.964012    0.100361
     21          1           0       -0.254193   -1.212801    1.766017
     22          1           0        1.491654   -1.175078    1.527066
     23          1           0        0.570782   -3.402632    0.968718
     24          1           0        1.269630   -2.701216   -0.506701
     25          1           0       -0.521235   -2.738067   -0.265468
     26          1           0       -1.059913    0.858512   -1.348410
     27          1           0       -1.021984   -0.900860   -1.365929
     28          1           0       -2.272168   -1.001503    0.831560
     29          1           0       -2.265041    0.812049    0.912745
     30          1           0       -4.145886    0.125762   -0.053411
 ---------------------------------------------------------------------
 Rotational constants (GHZ):      1.4951405      0.9361969      0.7001539
 Standard basis: 6-311++G(d,p) (5D, 7F)
 There are   370 symmetry adapted cartesian basis functions of A   symmetry.
 There are   360 symmetry adapted basis functions of A   symmetry.
   360 basis functions,   540 primitive gaussians,   370 cartesian basis functions
    41 alpha electrons       41 beta electrons
       nuclear repulsion energy       623.9351589313 Hartrees.
 NAtoms=   30 NActive=   30 NUniq=   30 SFac= 1.00D+00 NAtFMM=   60 NAOKFM=F Big=F
 Integral buffers will be    131072 words long.
 Raffenetti 2 integral format.
 Two-electron integral symmetry is turned on.
 One-electron integrals computed using PRISM.
 NBasis=   360 RedAO= T EigKep=  1.20D-05  NBF=   360
 NBsUse=   360 1.00D-06 EigRej= -1.00D+00 NBFU=   360
 ExpMin= 3.60D-02 ExpMax= 8.59D+03 ExpMxC= 1.30D+03 IAcc=3 IRadAn=         5 AccDes= 0.00D+00
 Harris functional with IExCor=  402 and IRadAn=       5 diagonalized for initial guess.
 HarFok:  IExCor=  402 AccDes= 0.00D+00 IRadAn=         5 IDoV= 1 UseB2=F ITyADJ=14
 ICtDFT=  3500011 ScaDFX=  1.000000  1.000000  1.000000  1.000000
 FoFCou: FMM=F IPFlag=           0 FMFlag=      100000 FMFlg1=           0
         NFxFlg=           0 DoJE=T BraDBF=F KetDBF=T FulRan=T
         wScrn=  0.000000 ICntrl=     500 IOpCl=  0 I1Cent=   200000004 NGrid=           0
         NMat0=    1 NMatS0=      1 NMatT0=    0 NMatD0=    1 NMtDS0=    0 NMtDT0=    0
 Petite list used in FoFCou.
 Keep R1 ints in memory in canonical form, NReq=2137204360.
 Requested convergence on RMS density matrix=1.00D-08 within 128 cycles.
 Requested convergence on MAX density matrix=1.00D-06.
 Requested convergence on             energy=1.00D-06.
 No special actions if energy rises.
 SCF Done:  E(RB3LYP) =  -446.744416451     A.U. after   12 cycles
            NFock= 12  Conv=0.50D-08     -V/T= 2.0062

 **********************************************************************

            Population analysis using the SCF density.

 **********************************************************************

 Orbital symmetries:
       Occupied  (A) (A) (A) (A) (A) (A) (A) (A) (A) (A) (A) (A)
                 (A) (A) (A) (A) (A) (A) (A) (A) (A) (A) (A) (A)
                 (A) (A) (A) (A) (A) (A) (A) (A) (A) (A) (A) (A)
                 (A) (A) (A) (A) (A)
       Virtual   (A) (A) (A) (A) (A) (A) (A) (A) (A) (A) (A) (A)
                 (A) (A) (A) (A) (A) (A) (A) (A) (A) (A) (A) (A)
                 (A) (A) (A) (A) (A) (A) (A) (A) (A) (A) (A) (A)
                 (A) (A) (A) (A) (A) (A) (A) (A) (A) (A) (A) (A)
                 (A) (A) (A) (A) (A) (A) (A) (A) (A) (A) (A) (A)
                 (A) (A) (A) (A) (A) (A) (A) (A) (A) (A) (A) (A)
                 (A) (A) (A) (A) (A) (A) (A) (A) (A) (A) (A) (A)
                 (A) (A) (A) (A) (A) (A) (A) (A) (A) (A) (A) (A)
                 (A) (A) (A) (A) (A) (A) (A) (A) (A) (A) (A) (A)
                 (A) (A) (A) (A) (A) (A) (A) (A) (A) (A) (A) (A)
                 (A) (A) (A) (A) (A) (A) (A) (A) (A) (A) (A) (A)
                 (A) (A) (A) (A) (A) (A) (A) (A) (A) (A) (A) (A)
                 (A) (A) (A) (A) (A) (A) (A) (A) (A) (A) (A) (A)
                 (A) (A) (A) (A) (A) (A) (A) (A) (A) (A) (A) (A)
                 (A) (A) (A) (A) (A) (A) (A) (A) (A) (A) (A) (A)
                 (A) (A) (A) (A) (A) (A) (A) (A) (A) (A) (A) (A)
                 (A) (A) (A) (A) (A) (A) (A) (A) (A) (A) (A) (A)
                 (A) (A) (A) (A) (A) (A) (A) (A) (A) (A) (A) (A)
                 (A) (A) (A) (A) (A) (A) (A) (A) (A) (A) (A) (A)
                 (A) (A) (A) (A) (A) (A) (A) (A) (A) (A) (A) (A)
                 (A) (A) (A) (A) (A) (A) (A) (A) (A) (A) (A) (A)
                 (A) (A) (A) (A) (A) (A) (A) (A) (A) (A) (A) (A)
                 (A) (A) (A) (A) (A) (A) (A) (A) (A) (A) (A) (A)
                 (A) (A) (A) (A) (A) (A) (A) (A) (A) (A) (A) (A)
                 (A) (A) (A) (A) (A) (A) (A) (A) (A) (A) (A) (A)
                 (A) (A) (A) (A) (A) (A) (A) (A) (A) (A) (A) (A)
                 (A) (A) (A) (A) (A) (A) (A)
 The electronic state is 1-A.
 Alpha  occ. eigenvalues --  -19.26033 -14.60682 -10.38977 -10.38967 -10.38901
 Alpha  occ. eigenvalues --  -10.38675 -10.37977 -10.32675 -10.32641 -10.32616
 Alpha  occ. eigenvalues --   -1.17194  -1.16221  -0.94075  -0.93754  -0.92836
 Alpha  occ. eigenvalues --   -0.88171  -0.83115  -0.78199  -0.77795  -0.73768
 Alpha  occ. eigenvalues --   -0.70093  -0.69343  -0.65352  -0.64517  -0.63165
 Alpha  occ. eigenvalues --   -0.60597  -0.59136  -0.57987  -0.57928  -0.57113
 Alpha  occ. eigenvalues --   -0.54214  -0.53780  -0.53703  -0.52798  -0.52479
 Alpha  occ. eigenvalues --   -0.51793  -0.51668  -0.51374  -0.50222  -0.47897
 Alpha  occ. eigenvalues --   -0.41816
 Alpha virt. eigenvalues --   -0.14199  -0.12471  -0.12031  -0.11522  -0.10777
 Alpha virt. eigenvalues --   -0.09848  -0.09558  -0.09143  -0.09009  -0.08179
 Alpha virt. eigenvalues --   -0.07209  -0.05897  -0.05469  -0.05300  -0.05146
 Alpha virt. eigenvalues --   -0.05067  -0.04807  -0.03932  -0.03842  -0.03714
 Alpha virt. eigenvalues --   -0.03556  -0.01932  -0.01605  -0.01346  -0.00936
 Alpha virt. eigenvalues --   -0.00797  -0.00567  -0.00285  -0.00174   0.00307
 Alpha virt. eigenvalues --    0.00538   0.00755   0.01100   0.01383   0.01973
 Alpha virt. eigenvalues --    0.02096   0.02530   0.03098   0.03454   0.03566
 Alpha virt. eigenvalues --    0.03786   0.04094   0.04964   0.05056   0.05585
 Alpha virt. eigenvalues --    0.05692   0.05799   0.06145   0.06325   0.06828
 Alpha virt. eigenvalues --    0.07334   0.07440   0.07752   0.07949   0.08519
 Alpha virt. eigenvalues --    0.08737   0.09108   0.09204   0.09670   0.09928
 Alpha virt. eigenvalues --    0.10499   0.11299   0.11499   0.11942   0.12136
 Alpha virt. eigenvalues --    0.12502   0.13150   0.13813   0.14058   0.15349
 Alpha virt. eigenvalues --    0.16374   0.17256   0.17735   0.18332   0.18461
 Alpha virt. eigenvalues --    0.18962   0.19046   0.19484   0.20241   0.20591
 Alpha virt. eigenvalues --    0.21252   0.22373   0.23688   0.24112   0.24446
 Alpha virt. eigenvalues --    0.28758   0.29402   0.29872   0.31711   0.32495
 Alpha virt. eigenvalues --    0.33192   0.34033   0.34562   0.35520   0.35822
 Alpha virt. eigenvalues --    0.37014   0.37940   0.41740   0.42962   0.43127
 Alpha virt. eigenvalues --    0.43674   0.45050   0.45160   0.45938   0.46738
 Alpha virt. eigenvalues --    0.47737   0.47871   0.48076   0.49388   0.51403
 Alpha virt. eigenvalues --    0.51897   0.52642   0.53170   0.53215   0.54364
 Alpha virt. eigenvalues --    0.54868   0.54996   0.55337   0.56951   0.57364
 Alpha virt. eigenvalues --    0.57671   0.58267   0.58579   0.59139   0.60165
 Alpha virt. eigenvalues --    0.61272   0.62052   0.62667   0.64909   0.65258
 Alpha virt. eigenvalues --    0.66485   0.67040   0.68839   0.69720   0.70684
 Alpha virt. eigenvalues --    0.71063   0.74417   0.83074   0.83481   0.85217
 Alpha virt. eigenvalues --    0.86715   0.87170   0.89554   0.90443   0.90978
 Alpha virt. eigenvalues --    0.95253   0.95985   0.99612   1.04257   1.05655
 Alpha virt. eigenvalues --    1.06428   1.07600   1.10587   1.11570   1.12710
 Alpha virt. eigenvalues --    1.16832   1.16924   1.22932   1.25925   1.27250
 Alpha virt. eigenvalues --    1.30098   1.30821   1.31052   1.32876   1.34315
 Alpha virt. eigenvalues --    1.36391   1.38357   1.38500   1.38768   1.39782
 Alpha virt. eigenvalues --    1.41041   1.41330   1.41442   1.41779   1.41856
 Alpha virt. eigenvalues --    1.43229   1.43476   1.44531   1.44560   1.45576
 Alpha virt. eigenvalues --    1.47036   1.48315   1.49499   1.49935   1.51996
 Alpha virt. eigenvalues --    1.53193   1.53385   1.54529   1.54880   1.55677
 Alpha virt. eigenvalues --    1.56039   1.56909   1.59278   1.60621   1.62260
 Alpha virt. eigenvalues --    1.64224   1.65750   1.67766   1.68309   1.68698
 Alpha virt. eigenvalues --    1.69941   1.70312   1.73855   1.75018   1.78088
 Alpha virt. eigenvalues --    1.78959   1.80346   1.84933   1.85542   1.88918
 Alpha virt. eigenvalues --    1.90950   1.92240   1.96120   1.97245   1.98516
 Alpha virt. eigenvalues --    1.98976   1.99982   2.01738   2.02256   2.04894
 Alpha virt. eigenvalues --    2.05507   2.07198   2.08893   2.09578   2.12512
 Alpha virt. eigenvalues --    2.15209   2.17378   2.19370   2.20741   2.21495
 Alpha virt. eigenvalues --    2.24134   2.24586   2.26268   2.26444   2.27331
 Alpha virt. eigenvalues --    2.30479   2.31175   2.32934   2.35303   2.36595
 Alpha virt. eigenvalues --    2.36736   2.37295   2.38987   2.41252   2.41737
 Alpha virt. eigenvalues --    2.42103   2.43420   2.46103   2.46526   2.47607
 Alpha virt. eigenvalues --    2.48632   2.53028   2.53743   2.54200   2.55316
 Alpha virt. eigenvalues --    2.56775   2.56983   2.57396   2.57526   2.63500
 Alpha virt. eigenvalues --    2.64641   2.69109   2.72743   2.72874   2.73955
 Alpha virt. eigenvalues --    2.74953   2.77558   2.80442   2.82220   2.83380
 Alpha virt. eigenvalues --    2.84451   2.85221   2.90192   2.92274   2.93631
 Alpha virt. eigenvalues --    2.99150   3.02404   3.06643   3.12353   3.17079
 Alpha virt. eigenvalues --    3.21214   3.22335   3.42712   3.42946   3.43702
 Alpha virt. eigenvalues --    3.47757   3.55420   3.55778   3.57139   3.58577
 Alpha virt. eigenvalues --    3.60907   3.62062   3.62544   3.63611   3.63818
 Alpha virt. eigenvalues --    3.65132   3.67954   3.75153   3.85458   3.98617
 Alpha virt. eigenvalues --    3.99212   4.00101   4.03695   4.49216   4.49464
 Alpha virt. eigenvalues --    4.55560   4.94294   5.26805   5.55086  23.64632
 Alpha virt. eigenvalues --   23.65810  23.66324  23.69007  23.73469  23.79887
 Alpha virt. eigenvalues --   23.80470  23.84994  35.26673  49.79320
          Condensed to atoms (all electrons):
               1          2          3          4          5          6
     1  C    6.086703  -0.526585   0.121103  -0.088089   0.134655   0.014091
     2  C   -0.526585   6.277956  -0.073415   0.047389  -0.140566  -0.313284
     3  N    0.121103  -0.073415   7.136926   0.026710   0.191964  -0.166124
     4  C   -0.088089   0.047389   0.026710   6.312498  -0.420273   0.008777
     5  C    0.134655  -0.140566   0.191964  -0.420273   6.048920  -0.212794
     6  C    0.014091  -0.313284  -0.166124   0.008777  -0.212794   6.445593
     7  C   -0.045037   0.013236   0.184020  -0.055389   0.169932  -0.682618
     8  C   -0.288832   0.304601  -0.197184  -0.336098  -0.152947   0.157652
     9  C    0.168240  -0.261961   0.055332  -0.096029  -0.027518   0.021816
    10  O    0.020540  -0.026895   0.016938   0.026709   0.001612  -0.029993
    11  H    0.450006  -0.079692   0.023910  -0.001806   0.006551  -0.000797
    12  H    0.348768   0.018561  -0.015249   0.034817  -0.034174   0.001671
    13  H    0.340339   0.035569  -0.017107  -0.012102   0.003493  -0.008194
    14  H   -0.048080   0.417256  -0.050815   0.035446  -0.029919   0.039708
    15  H   -0.098525   0.458275  -0.038006  -0.024947   0.026253  -0.022603
    16  H    0.016820  -0.018526  -0.036836   0.428372  -0.044786   0.027252
    17  H   -0.014027   0.027180  -0.035721   0.428010  -0.055567  -0.023109
    18  H    0.004749  -0.004837   0.022927  -0.065809   0.437695  -0.006978
    19  H   -0.000001  -0.010213  -0.004844   0.003870   0.378708   0.019043
    20  H   -0.018173   0.029265  -0.011149   0.013410   0.353726  -0.000841
    21  H   -0.019152   0.021251  -0.039986   0.039740  -0.018827   0.415607
    22  H    0.006504   0.004516  -0.061056  -0.028503  -0.003483   0.485192
    23  H    0.001494  -0.001362   0.024802  -0.001952   0.008241  -0.077581
    24  H    0.000477   0.000560  -0.021449   0.035620  -0.037624   0.032117
    25  H    0.002182  -0.004585  -0.015373  -0.014447   0.000087   0.023262
    26  H    0.076316  -0.111854  -0.047958  -0.029228  -0.027832   0.106651
    27  H   -0.053164   0.082882  -0.031069   0.003366  -0.001631  -0.096030
    28  H    0.041068  -0.055340  -0.016250  -0.012274  -0.000433   0.113483
    29  H   -0.064189   0.060264   0.028282   0.011100   0.010348  -0.065894
    30  H   -0.000512   0.000071  -0.000511  -0.004347   0.000339   0.005503
               7          8          9         10         11         12
     1  C   -0.045037  -0.288832   0.168240   0.020540   0.450006   0.348768
     2  C    0.013236   0.304601  -0.261961  -0.026895  -0.079692   0.018561
     3  N    0.184020  -0.197184   0.055332   0.016938   0.023910  -0.015249
     4  C   -0.055389  -0.336098  -0.096029   0.026709  -0.001806   0.034817
     5  C    0.169932  -0.152947  -0.027518   0.001612   0.006551  -0.034174
     6  C   -0.682618   0.157652   0.021816  -0.029993  -0.000797   0.001671
     7  C    6.207862  -0.212822   0.032057   0.018632   0.000579   0.001068
     8  C   -0.212822   7.216782  -0.933802   0.118608  -0.021306  -0.002770
     9  C    0.032057  -0.933802   6.477043   0.018644   0.012770   0.001312
    10  O    0.018632   0.118608   0.018644   7.980403   0.001466  -0.000992
    11  H    0.000579  -0.021306   0.012770   0.001466   0.481218  -0.024417
    12  H    0.001068  -0.002770   0.001312  -0.000992  -0.024417   0.541910
    13  H    0.004935   0.068920  -0.053169  -0.007282  -0.026344  -0.044709
    14  H   -0.026043  -0.063236   0.063351   0.001294  -0.003344   0.004446
    15  H    0.022124   0.071372  -0.056182  -0.001855  -0.014132   0.000918
    16  H   -0.012943   0.011150  -0.020981   0.000631  -0.001425  -0.021116
    17  H    0.018020   0.000493   0.000722   0.000685   0.000025   0.007183
    18  H    0.007659  -0.006647   0.001805  -0.000006   0.000752  -0.000714
    19  H   -0.012708  -0.007191  -0.004929   0.000057  -0.001166   0.000461
    20  H   -0.006083  -0.008871   0.010178   0.000211   0.001472  -0.007771
    21  H   -0.036469  -0.021337   0.007802   0.002261  -0.001353   0.001684
    22  H   -0.118102   0.043511  -0.000450  -0.001304   0.001457  -0.000649
    23  H    0.446798  -0.011040   0.003398   0.000789   0.000040  -0.000056
    24  H    0.341473  -0.001077   0.004520  -0.000757  -0.000057  -0.000808
    25  H    0.348720   0.045852  -0.030295  -0.004258  -0.000014   0.000978
    26  H   -0.069868   0.276923   0.124209   0.002598   0.004244   0.006061
    27  H    0.073808   0.475159  -0.110043   0.002097  -0.002077  -0.003433
    28  H   -0.107246  -0.082796   0.435031  -0.071347   0.002377  -0.001730
    29  H    0.048939   0.097345   0.240008  -0.045499  -0.004728   0.001728
    30  H   -0.001734  -0.114446   0.148461   0.220190   0.000002   0.000054
              13         14         15         16         17         18
     1  C    0.340339  -0.048080  -0.098525   0.016820  -0.014027   0.004749
     2  C    0.035569   0.417256   0.458275  -0.018526   0.027180  -0.004837
     3  N   -0.017107  -0.050815  -0.038006  -0.036836  -0.035721   0.022927
     4  C   -0.012102   0.035446  -0.024947   0.428372   0.428010  -0.065809
     5  C    0.003493  -0.029919   0.026253  -0.044786  -0.055567   0.437695
     6  C   -0.008194   0.039708  -0.022603   0.027252  -0.023109  -0.006978
     7  C    0.004935  -0.026043   0.022124  -0.012943   0.018020   0.007659
     8  C    0.068920  -0.063236   0.071372   0.011150   0.000493  -0.006647
     9  C   -0.053169   0.063351  -0.056182  -0.020981   0.000722   0.001805
    10  O   -0.007282   0.001294  -0.001855   0.000631   0.000685  -0.000006
    11  H   -0.026344  -0.003344  -0.014132  -0.001425   0.000025   0.000752
    12  H   -0.044709   0.004446   0.000918  -0.021116   0.007183  -0.000714
    13  H    0.535440  -0.006002   0.011918   0.009833  -0.005386  -0.000509
    14  H   -0.006002   0.501845  -0.051079  -0.004279   0.002068  -0.000497
    15  H    0.011918  -0.051079   0.524905   0.007651  -0.005248  -0.000008
    16  H    0.009833  -0.004279   0.007651   0.485955  -0.036961  -0.006037
    17  H   -0.005386   0.002068  -0.005248  -0.036961   0.482792  -0.006474
    18  H   -0.000509  -0.000497  -0.000008  -0.006037  -0.006474   0.473440
    19  H    0.000620  -0.006996   0.016075   0.007390  -0.004132  -0.021498
    20  H   -0.001969   0.010793  -0.035570  -0.005452   0.007166  -0.023530
    21  H    0.001280  -0.004969   0.014972   0.001891  -0.003222  -0.000204
    22  H   -0.000975   0.014766  -0.023309  -0.004827   0.005828  -0.001795
    23  H    0.000025  -0.000881   0.001091  -0.000035  -0.001181   0.000890
    24  H    0.000852   0.001791  -0.000998   0.006772  -0.020506  -0.001173
    25  H   -0.001021   0.000479   0.000114  -0.005108   0.008971  -0.000627
    26  H   -0.034228   0.018977  -0.023247  -0.015045   0.011504  -0.000768
    27  H    0.012362  -0.009334   0.013145   0.010378  -0.010032   0.000387
    28  H   -0.005238   0.017374  -0.019897  -0.001234   0.001391  -0.000171
    29  H   -0.000070  -0.037143   0.024825   0.001018  -0.000352   0.000200
    30  H   -0.000342   0.002547  -0.000146  -0.000275  -0.000103   0.000017
              19         20         21         22         23         24
     1  C   -0.000001  -0.018173  -0.019152   0.006504   0.001494   0.000477
     2  C   -0.010213   0.029265   0.021251   0.004516  -0.001362   0.000560
     3  N   -0.004844  -0.011149  -0.039986  -0.061056   0.024802  -0.021449
     4  C    0.003870   0.013410   0.039740  -0.028503  -0.001952   0.035620
     5  C    0.378708   0.353726  -0.018827  -0.003483   0.008241  -0.037624
     6  C    0.019043  -0.000841   0.415607   0.485192  -0.077581   0.032117
     7  C   -0.012708  -0.006083  -0.036469  -0.118102   0.446798   0.341473
     8  C   -0.007191  -0.008871  -0.021337   0.043511  -0.011040  -0.001077
     9  C   -0.004929   0.010178   0.007802  -0.000450   0.003398   0.004520
    10  O    0.000057   0.000211   0.002261  -0.001304   0.000789  -0.000757
    11  H   -0.001166   0.001472  -0.001353   0.001457   0.000040  -0.000057
    12  H    0.000461  -0.007771   0.001684  -0.000649  -0.000056  -0.000808
    13  H    0.000620  -0.001969   0.001280  -0.000975   0.000025   0.000852
    14  H   -0.006996   0.010793  -0.004969   0.014766  -0.000881   0.001791
    15  H    0.016075  -0.035570   0.014972  -0.023309   0.001091  -0.000998
    16  H    0.007390  -0.005452   0.001891  -0.004827  -0.000035   0.006772
    17  H   -0.004132   0.007166  -0.003222   0.005828  -0.001181  -0.020506
    18  H   -0.021498  -0.023530  -0.000204  -0.001795   0.000890  -0.001173
    19  H    0.550195  -0.055424   0.009281  -0.030549   0.000370  -0.007989
    20  H   -0.055424   0.553811  -0.006697   0.015455  -0.001015   0.000848
    21  H    0.009281  -0.006697   0.490401  -0.045089  -0.005419   0.004550
    22  H   -0.030549   0.015455  -0.045089   0.514229  -0.010208   0.000872
    23  H    0.000370  -0.001015  -0.005419  -0.010208   0.478925  -0.024382
    24  H   -0.007989   0.000848   0.004550   0.000872  -0.024382   0.542401
    25  H   -0.000447   0.000112  -0.003174   0.007553  -0.024942  -0.045209
    26  H   -0.004213   0.006752  -0.010478   0.013580  -0.001581  -0.002630
    27  H    0.003549  -0.003734   0.012042  -0.013805   0.001543   0.004530
    28  H   -0.003848   0.003793  -0.038819   0.024456  -0.003520   0.001855
    29  H    0.002922  -0.003864   0.011840  -0.015337   0.001130  -0.001672
    30  H   -0.000018   0.000016   0.000728   0.000306  -0.000041   0.000050
              25         26         27         28         29         30
     1  C    0.002182   0.076316  -0.053164   0.041068  -0.064189  -0.000512
     2  C   -0.004585  -0.111854   0.082882  -0.055340   0.060264   0.000071
     3  N   -0.015373  -0.047958  -0.031069  -0.016250   0.028282  -0.000511
     4  C   -0.014447  -0.029228   0.003366  -0.012274   0.011100  -0.004347
     5  C    0.000087  -0.027832  -0.001631  -0.000433   0.010348   0.000339
     6  C    0.023262   0.106651  -0.096030   0.113483  -0.065894   0.005503
     7  C    0.348720  -0.069868   0.073808  -0.107246   0.048939  -0.001734
     8  C    0.045852   0.276923   0.475159  -0.082796   0.097345  -0.114446
     9  C   -0.030295   0.124209  -0.110043   0.435031   0.240008   0.148461
    10  O   -0.004258   0.002598   0.002097  -0.071347  -0.045499   0.220190
    11  H   -0.000014   0.004244  -0.002077   0.002377  -0.004728   0.000002
    12  H    0.000978   0.006061  -0.003433  -0.001730   0.001728   0.000054
    13  H   -0.001021  -0.034228   0.012362  -0.005238  -0.000070  -0.000342
    14  H    0.000479   0.018977  -0.009334   0.017374  -0.037143   0.002547
    15  H    0.000114  -0.023247   0.013145  -0.019897   0.024825  -0.000146
    16  H   -0.005108  -0.015045   0.010378  -0.001234   0.001018  -0.000275
    17  H    0.008971   0.011504  -0.010032   0.001391  -0.000352  -0.000103
    18  H   -0.000627  -0.000768   0.000387  -0.000171   0.000200   0.000017
    19  H   -0.000447  -0.004213   0.003549  -0.003848   0.002922  -0.000018
    20  H    0.000112   0.006752  -0.003734   0.003793  -0.003864   0.000016
    21  H   -0.003174  -0.010478   0.012042  -0.038819   0.011840   0.000728
    22  H    0.007553   0.013580  -0.013805   0.024456  -0.015337   0.000306
    23  H   -0.024942  -0.001581   0.001543  -0.003520   0.001130  -0.000041
    24  H   -0.045209  -0.002630   0.004530   0.001855  -0.001672   0.000050
    25  H    0.536195   0.009738  -0.025977  -0.004624  -0.000863   0.000366
    26  H    0.009738   0.559987  -0.084920   0.052526  -0.052658   0.006625
    27  H   -0.025977  -0.084920   0.522821  -0.053664   0.032760  -0.000359
    28  H   -0.004624   0.052526  -0.053664   0.719241  -0.130359   0.000422
    29  H   -0.000863  -0.052658   0.032760  -0.130359   0.685414  -0.018948
    30  H    0.000366   0.006625  -0.000359   0.000422  -0.018948   0.477613
 Mulliken charges:
               1
     1  C   -0.569693
     2  C   -0.169714
     3  N    0.047187
     4  C   -0.264542
     5  C   -0.564148
     6  C   -0.210576
     7  C   -0.552801
     8  C   -0.425969
     9  C   -0.231342
    10  O   -0.244176
    11  H    0.195792
    12  H    0.186969
    13  H    0.199059
    14  H    0.210479
    15  H    0.222114
    16  H    0.220756
    17  H    0.219982
    18  H    0.197763
    19  H    0.183625
    20  H    0.183134
    21  H    0.219867
    22  H    0.221218
    23  H    0.195660
    24  H    0.187046
    25  H    0.196355
    26  H    0.239818
    27  H    0.248444
    28  H    0.195771
    29  H    0.183452
    30  H    0.278471
 Sum of Mulliken charges =   1.00000
 Mulliken charges with hydrogens summed into heavy atoms:
               1
     1  C    0.012128
     2  C    0.262878
     3  N    0.047187
     4  C    0.176196
     5  C    0.000374
     6  C    0.230509
     7  C    0.026260
     8  C    0.062293
     9  C    0.147881
    10  O    0.034295
 Electronic spatial extent (au):  <R**2>=           1839.0075
 Charge=              1.0000 electrons
 Dipole moment (field-independent basis, Debye):
    X=              1.7397    Y=              0.2059    Z=              1.8278  Tot=              2.5318
 Quadrupole moment (field-independent basis, Debye-Ang):
   XX=            -47.0576   YY=            -51.7791   ZZ=            -58.2259
   XY=             -1.0267   XZ=             -6.9502   YZ=              0.0158
 Traceless Quadrupole moment (field-independent basis, Debye-Ang):
   XX=              5.2966   YY=              0.5751   ZZ=             -5.8717
   XY=             -1.0267   XZ=             -6.9502   YZ=              0.0158
 Octapole moment (field-independent basis, Debye-Ang**2):
  XXX=            -34.4449  YYY=             -0.0419  ZZZ=              0.2205  XYY=              2.8444
  XXY=              4.7605  XXZ=             14.6671  XZZ=              6.2572  YZZ=              0.0991
  YYZ=              7.8073  XYZ=             -0.2221
 Hexadecapole moment (field-independent basis, Debye-Ang**3):
 XXXX=           -936.7948 YYYY=           -737.2301 ZZZZ=           -287.9156 XXXY=            -20.5949
 XXXZ=            -85.8214 YYYX=             -1.4430 YYYZ=              0.2212 ZZZX=             -5.5837
 ZZZY=              0.2286 XXYY=           -342.0109 XXZZ=           -256.6585 YYZZ=           -170.9911
 XXYZ=             -0.9251 YYXZ=              4.9412 ZZXY=             -0.1166
 N-N= 6.239351589313D+02 E-N=-2.271290788797D+03  KE= 4.439845939277D+02

 **********************************************************************

            Electrostatic Properties Using The SCF Density

 **********************************************************************

       Atomic Center    1 is at   0.343829  2.572293  0.250817
       Atomic Center    2 is at   0.481403  1.224741  0.975748
       Atomic Center    3 is at   0.373188  0.001538  0.057956
       Atomic Center    4 is at   1.449531  0.025100 -1.033015
       Atomic Center    5 is at   2.888989  0.053298 -0.496968
       Atomic Center    6 is at   0.526989 -1.220075  0.971059
       Atomic Center    7 is at   0.455138 -2.568438  0.238118
       Atomic Center    8 is at  -0.971736 -0.026442 -0.677163
       Atomic Center    9 is at  -2.200899 -0.066321  0.235370
       Atomic Center   10 is at  -3.356929 -0.015419 -0.581422
       Atomic Center   11 is at   0.438544  3.407058  0.983818
       Atomic Center   12 is at   1.139192  2.741044 -0.507246
       Atomic Center   13 is at  -0.647543  2.704940 -0.234447
       Atomic Center   14 is at  -0.288473  1.180854  1.780061
       Atomic Center   15 is at   1.452469  1.219052  1.522197
       Atomic Center   16 is at   1.308347  0.903618 -1.703745
       Atomic Center   17 is at   1.344030 -0.856631 -1.706123
       Atomic Center   18 is at   3.609334  0.062715 -1.347873
       Atomic Center   19 is at   3.144370 -0.843184  0.108702
       Atomic Center   20 is at   3.111729  0.964012  0.100361
       Atomic Center   21 is at  -0.254193 -1.212801  1.766017
       Atomic Center   22 is at   1.491654 -1.175078  1.527066
       Atomic Center   23 is at   0.570782 -3.402632  0.968718
       Atomic Center   24 is at   1.269630 -2.701216 -0.506701
       Atomic Center   25 is at  -0.521235 -2.738067 -0.265468
       Atomic Center   26 is at  -1.059913  0.858512 -1.348410
       Atomic Center   27 is at  -1.021984 -0.900860 -1.365929
       Atomic Center   28 is at  -2.272168 -1.001503  0.831560
       Atomic Center   29 is at  -2.265041  0.812049  0.912745
       Atomic Center   30 is at  -4.145886  0.125762 -0.053411
 -----------------------------------------------------------------

              Electrostatic Properties (Atomic Units)

 -----------------------------------------------------------------
    Center     Electric         -------- Electric Field --------
               Potential          X             Y             Z
 -----------------------------------------------------------------
    1 Atom    -14.618047     -0.000245      0.003403     -0.000972
    2 Atom    -14.555256      0.000933      0.012826      0.006881
    3 Atom    -18.104157      0.000235     -0.000067      0.000424
    4 Atom    -14.555959      0.011538      0.000224     -0.009088
    5 Atom    -14.617702      0.003451      0.000097      0.000493
    6 Atom    -14.555376      0.001399     -0.012809      0.006869
    7 Atom    -14.618308     -0.000070     -0.003421     -0.000993
    8 Atom    -14.559216     -0.012390      0.000070     -0.006781
    9 Atom    -14.564145      0.002737     -0.000378      0.009553
   10 Atom    -22.233116     -0.000272     -0.005012     -0.049817
   11 Atom     -0.961699      0.000788     -0.000172      0.004648
   12 Atom     -0.965326      0.002655      0.000522     -0.003243
   13 Atom     -0.965749     -0.003533      0.000385     -0.002471
   14 Atom     -0.934353     -0.004307     -0.008417     -0.002139
   15 Atom     -0.935364      0.003975     -0.008294     -0.003524
   16 Atom     -0.935925     -0.008043      0.004004      0.004054
   17 Atom     -0.936017     -0.007882     -0.004313      0.004086
   18 Atom     -0.961450     -0.000953     -0.000059     -0.004661
   19 Atom     -0.965155      0.001006     -0.003152      0.002720
   20 Atom     -0.965312      0.000885      0.003170      0.002713
   21 Atom     -0.934495     -0.004507      0.008180     -0.002098
   22 Atom     -0.935565      0.003539      0.008380     -0.003296
   23 Atom     -0.961969      0.000646      0.000183      0.004677
   24 Atom     -0.965681      0.002745     -0.000400     -0.003190
   25 Atom     -0.965880     -0.003549     -0.000533     -0.002465
   26 Atom     -0.936149      0.004591      0.004409      0.001802
   27 Atom     -0.935597      0.005951     -0.004175      0.001371
   28 Atom     -0.969280      0.007286     -0.005747      0.007049
   29 Atom     -0.965716      0.008423      0.004381      0.008275
   30 Atom     -0.865774     -0.022643      0.003615      0.016037
 -----------------------------------------------------------------
 -----------------------------------------------------
    Center         ---- Electric Field Gradient ----
                     XX            YY            ZZ
 -----------------------------------------------------
    1 Atom     -500.147712   -500.289560   -500.171169
    2 Atom     -500.201165   -500.637515   -500.491118
    3 Atom     -812.971935   -812.934787   -813.016072
    4 Atom     -500.545884   -500.186295   -500.580840
    5 Atom     -500.307487   -500.149742   -500.152422
    6 Atom     -500.206915   -500.637929   -500.491191
    7 Atom     -500.147385   -500.290252   -500.172566
    8 Atom     -500.803896   -500.250837   -500.497617
    9 Atom     -500.544131   -500.106356   -500.358352
   10 Atom    -1238.294525  -1234.523699  -1236.472839
   11 Atom       -1.623952     -1.844283     -1.804468
   12 Atom       -1.859458     -1.666008     -1.840393
   13 Atom       -1.973185     -1.662279     -1.726809
   14 Atom       -1.848985     -1.672944     -1.852765
   15 Atom       -1.955441     -1.669864     -1.744034
   16 Atom       -1.674523     -1.900578     -1.789694
   17 Atom       -1.671070     -1.903061     -1.790691
   18 Atom       -1.788013     -1.620101     -1.862082
   19 Atom       -1.678186     -1.916738     -1.772847
   20 Atom       -1.673736     -1.924670     -1.769690
   21 Atom       -1.854013     -1.670898     -1.847351
   22 Atom       -1.950665     -1.671434     -1.747349
   23 Atom       -1.625141     -1.843901     -1.803375
   24 Atom       -1.869213     -1.663324     -1.833997
   25 Atom       -1.964458     -1.665395     -1.732878
   26 Atom       -1.661034     -1.896090     -1.777954
   27 Atom       -1.661192     -1.889776     -1.785978
   28 Atom       -1.711310     -1.975262     -1.813200
   29 Atom       -1.715204     -1.943610     -1.848565
   30 Atom       -2.015724     -1.501689     -1.753235
 -----------------------------------------------------
 -----------------------------------------------------
    Center         ---- Electric Field Gradient ----
                     XY            XZ            YZ
 -----------------------------------------------------
    1 Atom        0.014191     -0.003600      0.075511
    2 Atom       -0.035872     -0.032508     -0.309930
    3 Atom       -0.003759     -0.024701     -0.001904
    4 Atom       -0.007468      0.322539      0.007161
    5 Atom       -0.003153     -0.057075     -0.000860
    6 Atom        0.051216     -0.041997      0.308107
    7 Atom       -0.007161     -0.000476     -0.076702
    8 Atom       -0.014335     -0.263308     -0.002476
    9 Atom        0.009956     -0.185344      0.008965
   10 Atom        0.399992     -0.240868     -0.143556
   11 Atom       -0.024684     -0.024019     -0.191518
   12 Atom       -0.036270      0.200070      0.039460
   13 Atom        0.035159     -0.158969      0.020970
   14 Atom       -0.022075      0.193221      0.009633
   15 Atom        0.011903     -0.161657     -0.003332
   16 Atom        0.048580     -0.023737      0.180260
   17 Atom       -0.039212     -0.016547     -0.181331
   18 Atom       -0.002224      0.190306      0.002389
   19 Atom        0.067560     -0.048778      0.181397
   20 Atom       -0.059127     -0.041597     -0.181596
   21 Atom        0.013722      0.193001     -0.000331
   22 Atom       -0.023343     -0.163758     -0.003529
   23 Atom        0.030344     -0.028476      0.190739
   24 Atom        0.027890      0.201060     -0.030012
   25 Atom       -0.046040     -0.162650     -0.027822
   26 Atom        0.014230     -0.015723      0.182967
   27 Atom       -0.003879     -0.007620     -0.186095
   28 Atom       -0.013453      0.006359      0.182345
   29 Atom        0.011647      0.005167     -0.195231
   30 Atom        0.090236      0.306785     -0.061878
 -----------------------------------------------------
 -----------------------------------------------------
    Center         ---- Electric Field Gradient ----
                   ----       Eigenvalues       ----
 -----------------------------------------------------
    1 Atom     -500.327456   -500.147253   -500.133731
    2 Atom     -500.886179   -500.246075   -500.197544
    3 Atom     -813.027243   -812.961145   -812.934405
    4 Atom     -500.886527   -500.240355   -500.186138
    5 Atom     -500.326290   -500.149684   -500.133678
    6 Atom     -500.887724   -500.247869   -500.200443
    7 Atom     -500.328326   -500.147719   -500.134158
    8 Atom     -500.955624   -500.346415   -500.250312
    9 Atom     -500.658875   -500.243964   -500.106000
   10 Atom    -1238.363269  -1236.460209  -1234.467586
   11 Atom       -2.019916     -1.631981     -1.620805
   12 Atom       -2.057528     -1.659893     -1.648436
   13 Atom       -2.055345     -1.659131     -1.647798
   14 Atom       -2.045451     -1.675925     -1.653319
   15 Atom       -2.043098     -1.673914     -1.652328
   16 Atom       -2.041442     -1.672627     -1.650726
   17 Atom       -2.041340     -1.672687     -1.650795
   18 Atom       -2.018949     -1.631175     -1.620071
   19 Atom       -2.058194     -1.660436     -1.649141
   20 Atom       -2.058200     -1.660556     -1.649339
   21 Atom       -2.043981     -1.675545     -1.652736
   22 Atom       -2.043070     -1.673962     -1.652416
   23 Atom       -2.019835     -1.631895     -1.620687
   24 Atom       -2.057664     -1.660127     -1.648743
   25 Atom       -2.055705     -1.659274     -1.647752
   26 Atom       -2.030454     -1.661020     -1.643604
   27 Atom       -2.031234     -1.661839     -1.643873
   28 Atom       -2.094338     -1.710987     -1.694447
   29 Atom       -2.097419     -1.715292     -1.694668
   30 Atom       -2.234491     -1.550857     -1.485301
 -----------------------------------------------------
 -----------------------------------------------------
    Center         ---- Electric Field Gradient ----
                       ( tensor representation )
                   3XX-RR        3YY-RR        3ZZ-RR
 -----------------------------------------------------
    1 Atom        0.055102     -0.086747      0.031645
    2 Atom        0.242101     -0.194249     -0.047852
    3 Atom        0.002330      0.039478     -0.041807
    4 Atom       -0.108211      0.251378     -0.143167
    5 Atom       -0.104270      0.053475      0.050795
    6 Atom        0.238431     -0.192584     -0.045846
    7 Atom        0.056016     -0.086851      0.030835
    8 Atom       -0.286446      0.266613      0.019833
    9 Atom       -0.207852      0.229923     -0.022072
   10 Atom       -1.864170      1.906655     -0.042485
   11 Atom        0.133616     -0.086715     -0.046900
   12 Atom       -0.070839      0.122612     -0.051773
   13 Atom       -0.185760      0.125145      0.060615
   14 Atom       -0.057420      0.118621     -0.061200
   15 Atom       -0.165661      0.119916      0.045746
   16 Atom        0.113742     -0.112313     -0.001429
   17 Atom        0.117204     -0.114787     -0.002417
   18 Atom       -0.031281      0.136631     -0.105350
   19 Atom        0.111071     -0.127481      0.016411
   20 Atom        0.115629     -0.135305      0.019675
   21 Atom       -0.063259      0.119856     -0.056597
   22 Atom       -0.160849      0.118382      0.042467
   23 Atom        0.132332     -0.086429     -0.045903
   24 Atom       -0.080369      0.125521     -0.045152
   25 Atom       -0.176881      0.122182      0.054699
   26 Atom        0.117325     -0.117731      0.000406
   27 Atom        0.117790     -0.110794     -0.006996
   28 Atom        0.121948     -0.142005      0.020057
   29 Atom        0.120589     -0.107817     -0.012772
   30 Atom       -0.258842      0.255194      0.003648
 -----------------------------------------------------
 -----------------------------------------------------
    Center         ---- Electric Field Gradient ----
                       ( tensor representation )
                   ----       Eigenvalues       ----
 -----------------------------------------------------
    1 Atom       -0.124643      0.055561      0.069082
    2 Atom       -0.442913      0.197191      0.245722
    3 Atom       -0.052978      0.013119      0.039859
    4 Atom       -0.448854      0.197318      0.251535
    5 Atom       -0.123073      0.053533      0.069539
    6 Atom       -0.442379      0.197476      0.244903
    7 Atom       -0.124924      0.055682      0.069243
    8 Atom       -0.438174      0.171036      0.267139
    9 Atom       -0.322595      0.092315      0.230280
   10 Atom       -1.932914     -0.029854      1.962768
   11 Atom       -0.262349      0.125586      0.136762
   12 Atom       -0.268909      0.128726      0.140183
   13 Atom       -0.267921      0.128294      0.139627
   14 Atom       -0.253886      0.115640      0.138246
   15 Atom       -0.253318      0.115866      0.137452
   16 Atom       -0.253177      0.115638      0.137539
   17 Atom       -0.253067      0.115587      0.137479
   18 Atom       -0.262218      0.125557      0.136661
   19 Atom       -0.268937      0.128821      0.140116
   20 Atom       -0.268835      0.128809      0.140026
   21 Atom       -0.253227      0.115208      0.138018
   22 Atom       -0.253254      0.115854      0.137400
   23 Atom       -0.262363      0.125577      0.136786
   24 Atom       -0.268819      0.128717      0.140102
   25 Atom       -0.268128      0.128303      0.139825
   26 Atom       -0.252095      0.117339      0.134755
   27 Atom       -0.252252      0.117143      0.135109
   28 Atom       -0.261081      0.122270      0.138810
   29 Atom       -0.261626      0.120501      0.141125
   30 Atom       -0.477608      0.206026      0.271582
 -----------------------------------------------------
 Calling FoFJK, ICntrl=      2127 FMM=F ISym2X=0 I1Cent= 0 IOpClX= 0 NMat=1 NMatS=1 NMatT=0.
 ***** Axes restored to original set *****
 -------------------------------------------------------------------
 Center     Atomic                   Forces (Hartrees/Bohr)
 Number     Number              X              Y              Z
 -------------------------------------------------------------------
      1        6          -0.009822412   -0.007962602   -0.000384916
      2        6          -0.027618659    0.007931618   -0.002036747
      3        7           0.000136031    0.001491708    0.005557173
      4        6           0.004879911   -0.013939558   -0.024233453
      5        6          -0.000818575    0.005915922   -0.011065181
      6        6           0.021269971    0.019437322    0.001114351
      7        6           0.012320325   -0.002844956    0.000599631
      8        6           0.002655986   -0.017753786    0.013512490
      9        6          -0.007652739    0.015510287    0.021993001
     10        8           0.005669584   -0.017013567   -0.009967424
     11        1           0.014057422   -0.003056450    0.000699761
     12        1          -0.000032058    0.007016317    0.010849884
     13        1           0.001340909    0.007059924   -0.010506935
     14        1           0.011967671   -0.011279419   -0.008788517
     15        1           0.010898096   -0.011738385    0.009599817
     16        1           0.005394690    0.015327029    0.009142972
     17        1          -0.012656751    0.011118219    0.008022043
     18        1          -0.002176022    0.005687366    0.013150140
     19        1          -0.008869080   -0.009096594    0.001412839
     20        1           0.011781131   -0.004091828    0.002776819
     21        1          -0.004608295   -0.014907759   -0.010109450
     22        1          -0.005533265   -0.015495423    0.008624658
     23        1          -0.011263496   -0.008933565   -0.000892484
     24        1          -0.004243770    0.005875197    0.010713696
     25        1          -0.003172449    0.006285715   -0.010558243
     26        1           0.006132196    0.015346070   -0.003783076
     27        1          -0.011524509    0.011156372   -0.006117396
     28        1          -0.007762084   -0.002157529   -0.010169910
     29        1           0.009813612    0.002011775   -0.009750649
     30        1          -0.000563371    0.003100581    0.000595102
 -------------------------------------------------------------------
 Cartesian Forces:  Max     0.027618659 RMS     0.010184345

 GradGradGradGradGradGradGradGradGradGradGradGradGradGradGradGradGradGrad
 Berny optimization.
 FormGI is forming the generalized inverse of G from B-inverse, IUseBI=4.
 Internal  Forces:  Max     0.023212296 RMS     0.006517225
 Search for a local minimum.
 Step number   1 out of a maximum of  169
 All quantities printed in internal units (Hartrees-Bohrs-Radians)
 Mixed Optimization -- RFO/linear search
 Second derivative matrix not updated -- first step.
 ITU=  0
     Eigenvalues ---    0.00230   0.00230   0.00230   0.00230   0.00285
     Eigenvalues ---    0.00285   0.00286   0.00351   0.01475   0.03202
     Eigenvalues ---    0.03219   0.03226   0.03228   0.04563   0.04650
     Eigenvalues ---    0.04652   0.04655   0.04666   0.04778   0.04815
     Eigenvalues ---    0.05019   0.05019   0.05023   0.05243   0.05310
     Eigenvalues ---    0.05553   0.05554   0.05556   0.08633   0.08634
     Eigenvalues ---    0.08646   0.08743   0.11635   0.12422   0.12422
     Eigenvalues ---    0.12430   0.12496   0.13658   0.13715   0.15057
     Eigenvalues ---    0.16000   0.16000   0.16000   0.16000   0.16000
     Eigenvalues ---    0.16000   0.16000   0.16000   0.16000   0.16000
     Eigenvalues ---    0.21854   0.21855   0.21860   0.21866   0.21988
     Eigenvalues ---    0.28842   0.28845   0.28850   0.29142   0.29151
     Eigenvalues ---    0.29158   0.29172   0.29296   0.32082   0.32085
     Eigenvalues ---    0.32086   0.32121   0.32145   0.32149   0.32152
     Eigenvalues ---    0.32152   0.32154   0.32155   0.32157   0.32420
     Eigenvalues ---    0.32424   0.32425   0.32427   0.32427   0.32430
     Eigenvalues ---    0.32458   0.32487   0.43009   0.55520
 RFO step:  Lambda=-2.81394802D-02 EMin= 2.30000000D-03
 Linear search not attempted -- first point.
 Maximum step size (   0.300) exceeded in Quadratic search.
    -- Step size scaled by   0.911
 Iteration  1 RMS(Cart)=  0.06520286 RMS(Int)=  0.00193885
 Iteration  2 RMS(Cart)=  0.00222342 RMS(Int)=  0.00079511
 Iteration  3 RMS(Cart)=  0.00000205 RMS(Int)=  0.00079511
 Iteration  4 RMS(Cart)=  0.00000001 RMS(Int)=  0.00079511
 Variable       Old X    -DE/DX   Delta X   Delta X   Delta X     New X
                                 (Linear)    (Quad)   (Total)
    R1        2.90327  -0.00620   0.00000  -0.01785  -0.01785   2.88542
    R2        2.10693  -0.01383   0.00000  -0.03609  -0.03609   2.07084
    R3        2.10069  -0.01290   0.00000  -0.03335  -0.03335   2.06734
    R4        2.10082  -0.01270   0.00000  -0.03283  -0.03283   2.06799
    R5        2.89707  -0.00559   0.00000  -0.01592  -0.01592   2.88115
    R6        2.10563  -0.01552   0.00000  -0.04043  -0.04043   2.06520
    R7        2.10567  -0.01556   0.00000  -0.04053  -0.04053   2.06515
    R8        2.89646  -0.00606   0.00000  -0.01725  -0.01725   2.87921
    R9        2.89674  -0.00512   0.00000  -0.01458  -0.01458   2.88216
   R10        2.89690  -0.00935   0.00000  -0.02666  -0.02666   2.87024
   R11        2.90316  -0.00624   0.00000  -0.01794  -0.01794   2.88523
   R12        2.10567  -0.01555   0.00000  -0.04051  -0.04051   2.06516
   R13        2.10571  -0.01559   0.00000  -0.04062  -0.04062   2.06510
   R14        2.10687  -0.01390   0.00000  -0.03627  -0.03627   2.07061
   R15        2.10069  -0.01277   0.00000  -0.03299  -0.03299   2.06769
   R16        2.10076  -0.01275   0.00000  -0.03297  -0.03297   2.06779
   R17        2.90333  -0.00622   0.00000  -0.01790  -0.01790   2.88542
   R18        2.10622  -0.01559   0.00000  -0.04066  -0.04066   2.06557
   R19        2.10579  -0.01557   0.00000  -0.04056  -0.04056   2.06523
   R20        2.10688  -0.01383   0.00000  -0.03609  -0.03609   2.07078
   R21        2.10073  -0.01292   0.00000  -0.03339  -0.03339   2.06734
   R22        2.10064  -0.01266   0.00000  -0.03273  -0.03273   2.06791
   R23        2.89390  -0.00572   0.00000  -0.01624  -0.01624   2.87766
   R24        2.10557  -0.01542   0.00000  -0.04016  -0.04016   2.06542
   R25        2.10561  -0.01525   0.00000  -0.03973  -0.03973   2.06588
   R26        2.67658   0.00333   0.00000   0.00661   0.00661   2.68319
   R27        2.10014  -0.00898   0.00000  -0.02319  -0.02319   2.07695
   R28        2.09962  -0.00900   0.00000  -0.02323  -0.02323   2.07640
   R29        1.81372   0.00181   0.00000   0.00283   0.00283   1.81655
    A1        1.91653  -0.00577   0.00000  -0.02915  -0.02917   1.88736
    A2        1.97236   0.00065   0.00000   0.00364   0.00362   1.97597
    A3        1.97194   0.00065   0.00000   0.00390   0.00388   1.97583
    A4        1.84823   0.00249   0.00000   0.01064   0.01061   1.85884
    A5        1.84772   0.00259   0.00000   0.01167   0.01166   1.85937
    A6        1.89891  -0.00037   0.00000   0.00023   0.00021   1.89912
    A7        1.99438   0.01068   0.00000   0.03745   0.03806   2.03244
    A8        1.88944   0.00172   0.00000   0.02890   0.02947   1.91891
    A9        1.89011   0.00184   0.00000   0.03044   0.03100   1.92111
   A10        1.93044  -0.00952   0.00000  -0.06195  -0.06286   1.86759
   A11        1.92947  -0.00945   0.00000  -0.06069  -0.06165   1.86782
   A12        1.82135   0.00454   0.00000   0.02798   0.02475   1.84610
   A13        1.94366  -0.00059   0.00000  -0.00408  -0.00408   1.93958
   A14        1.84644   0.00130   0.00000   0.00903   0.00903   1.85547
   A15        1.94290  -0.00050   0.00000  -0.00213  -0.00214   1.94076
   A16        1.94527  -0.00064   0.00000  -0.00379  -0.00378   1.94149
   A17        1.84944   0.00063   0.00000   0.00083   0.00082   1.85026
   A18        1.93813  -0.00026   0.00000  -0.00015  -0.00016   1.93797
   A19        1.99314   0.01028   0.00000   0.03594   0.03655   2.02969
   A20        1.93007  -0.00937   0.00000  -0.06098  -0.06188   1.86819
   A21        1.92977  -0.00931   0.00000  -0.06037  -0.06128   1.86849
   A22        1.89049   0.00189   0.00000   0.02982   0.03034   1.92083
   A23        1.89021   0.00189   0.00000   0.03015   0.03066   1.92087
   A24        1.82168   0.00444   0.00000   0.02762   0.02443   1.84612
   A25        1.91690  -0.00595   0.00000  -0.03025  -0.03027   1.88663
   A26        1.97204   0.00075   0.00000   0.00434   0.00432   1.97636
   A27        1.97171   0.00074   0.00000   0.00437   0.00434   1.97605
   A28        1.84856   0.00252   0.00000   0.01075   0.01073   1.85929
   A29        1.84805   0.00256   0.00000   0.01110   0.01109   1.85914
   A30        1.89851  -0.00039   0.00000   0.00052   0.00049   1.89900
   A31        1.99385   0.01072   0.00000   0.03777   0.03837   2.03222
   A32        1.92766  -0.00940   0.00000  -0.06102  -0.06194   1.86572
   A33        1.93039  -0.00938   0.00000  -0.06005  -0.06101   1.86938
   A34        1.88937   0.00166   0.00000   0.02851   0.02908   1.91845
   A35        1.89015   0.00177   0.00000   0.02999   0.03055   1.92071
   A36        1.82410   0.00443   0.00000   0.02675   0.02360   1.84770
   A37        1.91685  -0.00578   0.00000  -0.02932  -0.02934   1.88750
[...]
    17  H    0.010904   0.009353  -0.014693   0.001552  -0.000523  -0.000340
    18  H   -0.000626  -0.000054  -0.000055  -0.000001  -0.000002   0.000015
    19  H   -0.000708  -0.003905   0.004700  -0.003866   0.003382  -0.000006
    20  H    0.000377   0.004707  -0.003905   0.003386  -0.003867  -0.000006
    21  H   -0.007884  -0.014232   0.021303  -0.049310   0.020863   0.001655
    22  H    0.010833   0.013317  -0.019027   0.024432  -0.017273   0.000116
    23  H   -0.024304  -0.002312   0.003447  -0.005615   0.002069  -0.000055
    24  H   -0.050016  -0.002377   0.004903   0.003172  -0.002440   0.000105
    25  H    0.538853   0.011330  -0.034765  -0.000046  -0.002949  -0.000336
    26  H    0.011330   0.576928  -0.093805   0.054356  -0.071750   0.005018
    27  H   -0.034765  -0.093805   0.576789  -0.071695   0.054297   0.005015
    28  H   -0.000046   0.054356  -0.071695   0.749992  -0.170381  -0.009776
    29  H   -0.002949  -0.071750   0.054297  -0.170381   0.749954  -0.009834
    30  H   -0.000336   0.005018   0.005015  -0.009776  -0.009834   0.496650
 Mulliken charges:
               1
     1  C   -0.571874
     2  C   -0.104068
     3  N   -0.108073
     4  C   -0.177232
     5  C   -0.575502
     6  C   -0.104123
     7  C   -0.571841
     8  C   -0.450680
     9  C   -0.173861
    10  O   -0.222705
    11  H    0.193194
    12  H    0.186165
    13  H    0.194010
    14  H    0.200859
    15  H    0.206685
    16  H    0.203387
    17  H    0.203414
    18  H    0.194988
    19  H    0.181073
    20  H    0.181066
    21  H    0.200812
    22  H    0.206760
    23  H    0.193195
    24  H    0.186165
    25  H    0.194012
    26  H    0.238702
    27  H    0.238767
    28  H    0.189792
    29  H    0.189764
    30  H    0.277151
 Sum of Mulliken charges =   1.00000
 Mulliken charges with hydrogens summed into heavy atoms:
               1
     1  C    0.001495
     2  C    0.303477
     3  N   -0.108073
     4  C    0.229569
     5  C   -0.018375
     6  C    0.303448
     7  C    0.001531
     8  C    0.026789
     9  C    0.205694
    10  O    0.054446
 Electronic spatial extent (au):  <R**2>=           1821.4739
 Charge=              1.0000 electrons
 Dipole moment (field-independent basis, Debye):
    X=              1.5221    Y=              0.0010    Z=              1.8425  Tot=              2.3899
 Quadrupole moment (field-independent basis, Debye-Ang):
   XX=            -45.5628   YY=            -51.4992   ZZ=            -58.8087
   XY=             -0.0036   XZ=             -6.4310   YZ=             -0.0005
 Traceless Quadrupole moment (field-independent basis, Debye-Ang):
   XX=              6.3941   YY=              0.4577   ZZ=             -6.8518
   XY=             -0.0036   XZ=             -6.4310   YZ=             -0.0005
 Octapole moment (field-independent basis, Debye-Ang**2):
  XXX=            -40.9045  YYY=              0.0007  ZZZ=              0.4033  XYY=              3.3897
  XXY=              0.0139  XXZ=             10.8031  XZZ=              6.8262  YZZ=              0.0006
  YYZ=              7.4324  XYZ=              0.0009
 Hexadecapole moment (field-independent basis, Debye-Ang**3):
 XXXX=           -884.4559 YYYY=           -734.4006 ZZZZ=           -295.0795 XXXY=             -0.0478
 XXXZ=            -63.1270 YYYX=             -0.0048 YYYZ=              0.0002 ZZZX=             -6.5237
 ZZZY=             -0.0011 XXYY=           -336.6251 XXZZ=           -254.3765 YYZZ=           -171.3940
 XXYZ=             -0.0070 YYXZ=              5.1424 ZZXY=              0.0022
 N-N= 6.277225059714D+02 E-N=-2.279329895449D+03  KE= 4.446549413138D+02

 **********************************************************************

            Electrostatic Properties Using The SCF Density

 **********************************************************************

       Atomic Center    1 is at   0.389611  2.582377  0.295230
       Atomic Center    2 is at   0.523453  1.228581  0.975567
       Atomic Center    3 is at   0.365906  0.000024  0.071667
       Atomic Center    4 is at   1.421352  0.000048 -1.042882
       Atomic Center    5 is at   2.873774 -0.000118 -0.592477
       Atomic Center    6 is at   0.523505 -1.228486  0.975617
       Atomic Center    7 is at   0.389662 -2.582302  0.295326
       Atomic Center    8 is at  -0.982670 -0.000021 -0.626771
       Atomic Center    9 is at  -2.223332  0.000091  0.267836
       Atomic Center   10 is at  -3.287245 -0.000236 -0.666613
       Atomic Center   11 is at   0.520916  3.346820  1.064664
       Atomic Center   12 is at   1.155363  2.757920 -0.461404
       Atomic Center   13 is at  -0.593151  2.742740 -0.150192
       Atomic Center   14 is at  -0.223657  1.115908  1.760220
       Atomic Center   15 is at   1.500353  1.127111  1.445963
       Atomic Center   16 is at   1.205372  0.876307 -1.651932
       Atomic Center   17 is at   1.205254 -0.876048 -1.652128
       Atomic Center   18 is at   3.490993  0.000298 -1.494037
       Atomic Center   19 is at   3.146594 -0.888787 -0.021879
       Atomic Center   20 is at   3.146597  0.888036 -0.021076
       Atomic Center   21 is at  -0.223597 -1.115799  1.760276
       Atomic Center   22 is at   1.500412 -1.126970  1.445993
       Atomic Center   23 is at   0.521188 -3.346732  1.064736
       Atomic Center   24 is at   1.155281 -2.757778 -0.461458
       Atomic Center   25 is at  -0.593172 -2.742760 -0.149902
       Atomic Center   26 is at  -1.011843  0.877095 -1.270679
       Atomic Center   27 is at  -1.011875 -0.877292 -1.270466
       Atomic Center   28 is at  -2.256711 -0.889395  0.908012
       Atomic Center   29 is at  -2.256861  0.889883  0.907576
       Atomic Center   30 is at  -4.132960  0.000140 -0.205726
 -----------------------------------------------------------------

              Electrostatic Properties (Atomic Units)

 -----------------------------------------------------------------
    Center     Electric         -------- Electric Field --------
               Potential          X             Y             Z
 -----------------------------------------------------------------
    1 Atom    -14.624103     -0.000079      0.001886     -0.000383
    2 Atom    -14.563628      0.000880      0.008742      0.004427
    3 Atom    -18.117503      0.001220      0.000000      0.000324
    4 Atom    -14.565313      0.007705      0.000000     -0.006187
    5 Atom    -14.624067      0.001804     -0.000001      0.000004
    6 Atom    -14.563630      0.000881     -0.008742      0.004427
    7 Atom    -14.624107     -0.000080     -0.001886     -0.000383
    8 Atom    -14.571117     -0.009986      0.000000     -0.003739
    9 Atom    -14.566271      0.004922      0.000002      0.006398
   10 Atom    -22.228307      0.004138     -0.000026     -0.047809
   11 Atom     -0.963289      0.002153      0.012880      0.012598
   12 Atom     -0.966293      0.012851      0.003270     -0.012709
   13 Atom     -0.966505     -0.016432      0.003065     -0.007422
   14 Atom     -0.940096     -0.012631     -0.001459      0.013823
   15 Atom     -0.941044      0.016831     -0.001435      0.008352
   16 Atom     -0.942560     -0.003406      0.015079     -0.010889
   17 Atom     -0.942558     -0.003409     -0.015076     -0.010892
   18 Atom     -0.963296      0.010452      0.000006     -0.014828
   19 Atom     -0.966160      0.004886     -0.014915      0.009534
   20 Atom     -0.966151      0.004885      0.014907      0.009544
   21 Atom     -0.940099     -0.012630      0.001458      0.013824
   22 Atom     -0.941046      0.016832      0.001436      0.008349
   23 Atom     -0.963292      0.002156     -0.012880      0.012598
   24 Atom     -0.966293      0.012849     -0.003269     -0.012712
   25 Atom     -0.966510     -0.016433     -0.003066     -0.007419
   26 Atom     -0.944033     -0.001002      0.015041     -0.011619
   27 Atom     -0.944033     -0.001004     -0.015044     -0.011617
   28 Atom     -0.967330     -0.001327     -0.014751      0.010279
   29 Atom     -0.967325     -0.001328      0.014756      0.010272
   30 Atom     -0.864700     -0.023487      0.000009      0.010830
 -----------------------------------------------------------------
 -----------------------------------------------------
    Center         ---- Electric Field Gradient ----
                     XX            YY            ZZ
 -----------------------------------------------------
    1 Atom     -500.146972   -500.308657   -500.173752
    2 Atom     -500.298395   -500.721938   -500.598706
    3 Atom     -813.025016   -813.009329   -813.013484
    4 Atom     -500.619974   -500.286255   -500.722510
    5 Atom     -500.327689   -500.151008   -500.153835
    6 Atom     -500.298397   -500.721907   -500.598728
    7 Atom     -500.146962   -500.308654   -500.173746
    8 Atom     -500.898174   -500.343457   -500.587115
    9 Atom     -500.518909   -500.083077   -500.363671
   10 Atom    -1238.412661  -1234.684207  -1236.860098
   11 Atom       -1.658360     -1.876645     -1.884496
   12 Atom       -1.903645     -1.694838     -1.897612
   13 Atom       -2.048332     -1.692270     -1.751424
   14 Atom       -1.917579     -1.725042     -1.933097
   15 Atom       -2.063749     -1.721899     -1.783648
   16 Atom       -1.732384     -1.993379     -1.841780
   17 Atom       -1.732396     -1.993257     -1.841856
   18 Atom       -1.800880     -1.650917     -1.965152
   19 Atom       -1.711583     -1.982842     -1.803606
   20 Atom       -1.711575     -1.982477     -1.803953
   21 Atom       -1.917577     -1.725043     -1.933104
   22 Atom       -2.063742     -1.721899     -1.783635
   23 Atom       -1.658383     -1.876638     -1.884482
   24 Atom       -1.903562     -1.694825     -1.897694
   25 Atom       -2.048385     -1.692281     -1.751358
   26 Atom       -1.709077     -1.986196     -1.843016
   27 Atom       -1.709074     -1.986294     -1.842913
   28 Atom       -1.730684     -2.000814     -1.863766
   29 Atom       -1.730687     -2.001015     -1.863564
   30 Atom       -2.069902     -1.483984     -1.695951
 -----------------------------------------------------
 -----------------------------------------------------
    Center         ---- Electric Field Gradient ----
                     XY            XZ            YZ
 -----------------------------------------------------
    1 Atom        0.014729     -0.004210      0.075279
    2 Atom       -0.054473     -0.048605     -0.316193
    3 Atom       -0.000002     -0.014630     -0.000004
    4 Atom       -0.000012      0.325950      0.000023
    5 Atom        0.000018     -0.048821     -0.000014
    6 Atom        0.054489     -0.048630      0.316200
    7 Atom       -0.014730     -0.004198     -0.075276
    8 Atom       -0.000018     -0.256669     -0.000018
    9 Atom       -0.000089     -0.195954     -0.000088
   10 Atom        0.000344     -0.420663     -0.001043
   11 Atom       -0.037023     -0.039766     -0.217314
   12 Atom       -0.044288      0.224546      0.048496
   13 Atom        0.052726     -0.168589      0.027600
   14 Atom       -0.039537      0.221294      0.027059
   15 Atom        0.041670     -0.171936      0.009737
   16 Atom        0.076717     -0.039292      0.200014
   17 Atom       -0.076742     -0.039337     -0.200041
   18 Atom       -0.000094      0.204550      0.000145
   19 Atom        0.085888     -0.057693      0.197873
   20 Atom       -0.085834     -0.057767     -0.198037
   21 Atom        0.039541      0.221293     -0.027062
   22 Atom       -0.041687     -0.171929     -0.009744
   23 Atom        0.037086     -0.039831      0.217304
   24 Atom        0.044260      0.224552     -0.048486
   25 Atom       -0.052765     -0.168528     -0.027605
   26 Atom        0.002555     -0.006913      0.212479
   27 Atom       -0.002566     -0.006920     -0.212444
   28 Atom       -0.009770      0.001237      0.206737
   29 Atom        0.009820      0.001267     -0.206671
   30 Atom        0.000238      0.276524     -0.000156
 -----------------------------------------------------
 -----------------------------------------------------
    Center         ---- Electric Field Gradient ----
                   ----       Eigenvalues       ----
 -----------------------------------------------------
    1 Atom     -500.343453   -500.146528   -500.139400
    2 Atom     -500.990155   -500.338353   -500.290531
    3 Atom     -813.034976   -813.009329   -813.003524
    4 Atom     -501.001199   -500.341285   -500.286255
    5 Atom     -500.340460   -500.151008   -500.141063
    6 Atom     -500.990159   -500.338347   -500.290526
    7 Atom     -500.343447   -500.146526   -500.139389
    8 Atom     -501.042759   -500.442530   -500.343457
    9 Atom     -500.652058   -500.230523   -500.083077
   10 Atom    -1238.519312  -1236.753447  -1234.684206
   11 Atom       -2.104531     -1.663399     -1.651571
   12 Atom       -2.134969     -1.686191     -1.674935
   13 Atom       -2.132532     -1.685397     -1.674098
   14 Atom       -2.151929     -1.724375     -1.699413
   15 Atom       -2.149546     -1.721910     -1.697840
   16 Atom       -2.149015     -1.721625     -1.696903
   17 Atom       -2.149001     -1.721615     -1.696894
   18 Atom       -2.103440     -1.662592     -1.650917
   19 Atom       -2.135680     -1.686681     -1.675670
   20 Atom       -2.135671     -1.686675     -1.675660
   21 Atom       -2.151933     -1.724376     -1.699415
   22 Atom       -2.149536     -1.721906     -1.697834
   23 Atom       -2.104533     -1.663399     -1.651571
   24 Atom       -2.134965     -1.686187     -1.674929
   25 Atom       -2.132528     -1.685397     -1.674099
   26 Atom       -2.138908     -1.709863     -1.689517
   27 Atom       -2.138905     -1.709861     -1.689517
   28 Atom       -2.150266     -1.731791     -1.713208
   29 Atom       -2.150268     -1.731792     -1.713205
   30 Atom       -2.216731     -1.549122     -1.483984
 -----------------------------------------------------
 -----------------------------------------------------
    Center         ---- Electric Field Gradient ----
                       ( tensor representation )
                   3XX-RR        3YY-RR        3ZZ-RR
 -----------------------------------------------------
    1 Atom        0.062822     -0.098864      0.036042
    2 Atom        0.241285     -0.182258     -0.059027
    3 Atom       -0.009073      0.006614      0.002459
    4 Atom       -0.077062      0.256658     -0.179597
    5 Atom       -0.116845      0.059836      0.057009
    6 Atom        0.241280     -0.182230     -0.059050
    7 Atom        0.062825     -0.098866      0.036041
    8 Atom       -0.288592      0.266125      0.022467
    9 Atom       -0.197023      0.238809     -0.041785
   10 Atom       -1.760339      1.968115     -0.207776
   11 Atom        0.148140     -0.070145     -0.077996
   12 Atom       -0.071614      0.137194     -0.065580
   13 Atom       -0.217657      0.138405      0.079251
   14 Atom       -0.059006      0.133531     -0.074525
   15 Atom       -0.207317      0.134533      0.072784
   16 Atom        0.123464     -0.137531      0.014068
   17 Atom        0.123440     -0.137420      0.013980
   18 Atom        0.004770      0.154733     -0.159502
   19 Atom        0.121094     -0.150165      0.029071
   20 Atom        0.121093     -0.149809      0.028715
   21 Atom       -0.059002      0.133532     -0.074530
   22 Atom       -0.207317      0.134527      0.072790
   23 Atom        0.148118     -0.070137     -0.077981
   24 Atom       -0.071535      0.137202     -0.065667
   25 Atom       -0.217710      0.138394      0.079316
   26 Atom        0.137020     -0.140099      0.003080
   27 Atom        0.137020     -0.140200      0.003181
   28 Atom        0.134404     -0.135726      0.001322
   29 Atom        0.134401     -0.135926      0.001525
   30 Atom       -0.319957      0.265961      0.053995
 -----------------------------------------------------
 -----------------------------------------------------
    Center         ---- Electric Field Gradient ----
                       ( tensor representation )
                   ----       Eigenvalues       ----
 -----------------------------------------------------
    1 Atom       -0.133659      0.063265      0.070394
    2 Atom       -0.450476      0.201327      0.249149
    3 Atom       -0.019033      0.006614      0.012419
    4 Atom       -0.458286      0.201628      0.256658
    5 Atom       -0.129617      0.059836      0.069781
    6 Atom       -0.450481      0.201330      0.249151
    7 Atom       -0.133659      0.063261      0.070398
    8 Atom       -0.433177      0.167052      0.266125
    9 Atom       -0.330172      0.091363      0.238809
   10 Atom       -1.866990     -0.101125      1.968116
   11 Atom       -0.298031      0.143101      0.154930
   12 Atom       -0.302937      0.145840      0.157097
   13 Atom       -0.301856      0.145279      0.156577
   14 Atom       -0.293357      0.134198      0.159159
   15 Atom       -0.293114      0.134522      0.158592
   16 Atom       -0.293167      0.134223      0.158945
   17 Atom       -0.293164      0.134221      0.158943
   18 Atom       -0.297791      0.143058      0.154733
   19 Atom       -0.303002      0.145996      0.157007
   20 Atom       -0.303003      0.145994      0.157009
   21 Atom       -0.293358      0.134198      0.159160
   22 Atom       -0.293111      0.134520      0.158591
   23 Atom       -0.298032      0.143102      0.154930
   24 Atom       -0.302938      0.145840      0.157098
   25 Atom       -0.301854      0.145278      0.156576
   26 Atom       -0.292812      0.136233      0.156579
   27 Atom       -0.292811      0.136233      0.156577
   28 Atom       -0.285177      0.133297      0.151880
   29 Atom       -0.285180      0.133296      0.151883
   30 Atom       -0.466785      0.200824      0.265962
 -----------------------------------------------------

 Test job not archived.
 1|1|UNPC-NP-ALMACH|FOpt|RB3LYP|6-311++G(d,p)|C8H20N1O1(1+)|HERA|15-Aug
 -2018|0||# RB3LYP/6-311++G** Opt Test prop=EFG||C8NH20O||1,1|C,-2.3602
 624766,-0.3859205517,-0.6564494944|C,-1.1967512559,0.5914827832,-0.589
 6777892|N,0.2028529533,-0.0293622991,-0.5068088755|C,0.4845585273,-0.9
 124245785,-1.7303397356|C,0.4154675736,-0.2250032802,-3.0849881159|C,1
 .1935488092,1.1387382475,-0.4342581768|C,2.6640756477,0.7643735496,-0.
 3297064541|C,0.3317368382,-0.9363038471,0.7045211414|C,0.0961538108,-0
 .2967518928,2.0738414426|O,0.2864206434,-1.3798619877,2.9659043239|H,-
 3.2780186749,0.2047314828,-0.7064294938|H,-2.3386100879,-1.0158333777,
 -1.54663345|H,-2.4370158451,-1.0216212305,0.2266876235|H,-1.2855753887
 ,1.2375419753,0.2828289675|H,-1.1831818285,1.2369843089,-1.4666309608|
 H,-0.2327563277,-1.7295725229,-1.6742402681|H,1.472030045,-1.339525502
 3,-1.5632828494|H,0.637339239,-0.9810118095,-3.8419529746|H,1.15505987
 1,0.5680353664,-3.2026164548|H,-0.5736726756,0.1731011226,-3.314908539
 4|H,0.8854865379,1.7346150532,0.4239824787|H,1.0096519754,1.739015504,
 -1.3240643299|H,3.2336656271,1.6955259045,-0.2831735762|H,3.0272416229
 ,0.2124661506,-1.1975750594|H,2.8993809611,0.200293446,0.573832326|H,-
 0.3739511444,-1.7542049339,0.5709439788|H,1.3327205932,-1.3632987377,0
 .6820138409|H,0.8132506285,0.509322596,2.2691397319|H,-0.9175886282,0.
 1126268333,2.1566372893|H,0.159840429,-1.0867797725,3.8746014534||Vers
 ion=EM64W-G09RevD.01|State=1-A|HF=-446.7606815|RMSD=3.179e-009|RMSF=2.
 037e-006|Dipole=-0.153128,0.8003432,-0.4691293|Quadrupole=0.1067754,-6
 .1324831,6.0257077,1.3042028,-1.0004925,2.7435825|PG=C01 [X(C8H20N1O1)
 ]||@


 The number of Unix installations has grown to 10,
  with more expected.
                  -- The Unix Programmer's Manual,
                     2nd Edition, June, 1972.
 Job cpu time:       0 days  0 hours 22 minutes 12.0 seconds.
 File lengths (MBytes):  RWF=     59 Int=      0 D2E=      0 Chk=     10 Scr=      1
 Normal termination of Gaussian 09 at Wed Aug 15 13:53:32 2018.
