 Entering Link 1 = C:\G09W\l1.exe PID=     29492.
  
 Copyright (c) 1988,1990,1992,1993,1995,1998,2003,2009,2013,
            Gaussian, Inc.  All Rights Reserved.
  
 This is part of the Gaussian(R) 09 program.  It is based on
 the Gaussian(R) 03 system (copyright 2003, Gaussian, Inc.),
 the Gaussian(R) 98 system (copyright 1998, Gaussian, Inc.),
 the Gaussian(R) 94 system (copyright 1995, Gaussian, Inc.),
 the Gaussian 92(TM) system (copyright 1992, Gaussian, Inc.),
 the Gaussian 90(TM) system (copyright 1990, Gaussian, Inc.),
 the Gaussian 88(TM) system (copyright 1988, Gaussian, Inc.),
 the Gaussian 86(TM) system (copyright 1986, Carnegie Mellon
 University), and the Gaussian 82(TM) system (copyright 1983,
 Carnegie Mellon University). Gaussian is a federally registered
 trademark of Gaussian, Inc.
  
 This software contains proprietary and confidential information,
 including trade secrets, belonging to Gaussian, Inc.
  
 This software is provided under written license and may be
 used, copied, transmitted, or stored only in accord with that
 written license.
  
 The following legend is applicable only to US Government
 contracts under FAR:
  
                    RESTRICTED RIGHTS LEGEND
  
 Use, reproduction and disclosure by the US Government is
 subject to restrictions as set forth in subparagraphs (a)
 and (c) of the Commercial Computer Software - Restricted
 Rights clause in FAR 52.227-19.
  
 Gaussian, Inc.
 340 Quinnipiac St., Bldg. 40, Wallingford CT 06492
  
  
 ---------------------------------------------------------------
 Warning -- This program may not be used in any manner that
 competes with the business of Gaussian, Inc. or will provide
 assistance to any competitor of Gaussian, Inc.  The licensee
 of this program is prohibited from giving any competitor of
 Gaussian, Inc. access to this program.  By using this program,
 the user acknowledges that Gaussian, Inc. is engaged in the
 business of creating and licensing software in the field of
 computational chemistry and represents and warrants to the
 licensee that it is not a competitor of Gaussian, Inc. and that
 it will not use this program in any manner prohibited above.
 ---------------------------------------------------------------
  

 Cite this work as:
 Gaussian 09, Revision D.01,
 M. J. Frisch, G. W. Trucks, H. B. Schlegel, G. E. Scuseria, 
 M. A. Robb, J. R. Cheeseman, G. Scalmani, V. Barone, B. Mennucci, 
 G. A. Petersson, H. Nakatsuji, M. Caricato, X. Li, H. P. Hratchian, 
 A. F. Izmaylov, J. Bloino, G. Zheng, J. L. Sonnenberg, M. Hada, 
 M. Ehara, K. Toyota, R. Fukuda, J. Hasegawa, M. Ishida, T. Nakajima, 
 Y. Honda, O. Kitao, H. Nakai, T. Vreven, J. A. Montgomery, Jr., 
 J. E. Peralta, F. Ogliaro, M. Bearpark, J. J. Heyd, E. Brothers, 
 K. N. Kudin, V. N. Staroverov, T. Keith, R. Kobayashi, J. Normand, 
 K. Raghavachari, A. Rendell, J. C. Burant, S. S. Iyengar, J. Tomasi, 
 M. Cossi, N. Rega, J. M. Millam, M. Klene, J. E. Knox, J. B. Cross, 
 V. Bakken, C. Adamo, J. Jaramillo, R. Gomperts, R. E. Stratmann, 
 O. Yazyev, A. J. Austin, R. Cammi, C. Pomelli, J. W. Ochterski, 
 R. L. Martin, K. Morokuma, V. G. Zakrzewski, G. A. Voth, 
 P. Salvador, J. J. Dannenberg, S. Dapprich, A. D. Daniels, 
 O. Farkas, J. B. Foresman, J. V. Ortiz, J. Cioslowski, 
 and D. J. Fox, Gaussian, Inc., Wallingford CT, 2013.
 
 ******************************************
 Gaussian 09:  EM64W-G09RevD.01 13-Apr-2013
                15-Aug-2018 
 ******************************************
 %Chk=Anth_373.chk
 %Mem=64GB
 %NProcShared=20
 Will use up to   20 processors via shared memory.
 -------------------------------------
 # RB3LYP/6-311++G** Opt Test prop=EFG
 -------------------------------------
 1/14=-1,18=20,19=15,26=3,38=1/1,3;
 2/9=110,12=2,17=6,18=5,40=1/2;
 3/5=4,6=6,7=1111,11=2,16=1,25=1,30=1,71=1,74=-5,116=1/1,2,3;
 4//1;
 5/5=2,38=5/2;
 6/7=2,8=2,9=2,10=2,14=1,28=1/1,2;
 7//1,2,3,16;
 1/14=-1,18=20,19=15,26=3/3(2);
 2/9=110/2;
 99//99;
 2/9=110/2;
 3/5=4,6=6,7=1111,11=2,16=1,25=1,30=1,71=1,74=-5,116=1/1,2,3;
 4/5=5,16=3,69=1/1;
 5/5=2,38=5/2;
 7//1,2,3,16;
 1/14=-1,18=20,19=15,26=3/3(-5);
 2/9=110/2;
 6/7=2,8=2,9=2,10=2,14=1,19=2,28=1/1,2;
 99/9=1/99;
 -------
 C9NH18O
 -------
 Symbolic Z-matrix:
 Charge =  1 Multiplicity = 1
 C                     1.95683   1.27562  -0.8867 
 C                     1.8813   -0.06581  -1.62109 
 C                     2.10289  -1.18624  -0.59961 
 C                     1.10789  -1.05228   0.56508 
 N                     0.09426   0.03384   0.23218 
 C                    -0.57328  -0.28197  -1.09844 
 C                    -0.95138   0.16243   1.33988 
 C                    -1.83337  -1.07509   1.53196 
 O                    -2.69494  -0.83359   2.62994 
 C                     0.47744  -0.21131  -2.21833 
 C                     0.81298   1.37624   0.13335 
 H                     2.94657   1.36514  -0.37918 
 H                     1.9005    2.11713  -1.61715 
 H                     2.65478  -0.11285  -2.42625 
 H                     1.98382  -2.17254  -1.10823 
 H                     3.15051  -1.15453  -0.21698 
 H                     1.64079  -0.79899   1.51142 
 H                     0.61514  -2.03799   0.72236 
 H                    -1.02011  -1.30275  -1.07596 
 H                    -1.39942   0.43802  -1.30577 
 H                    -0.44037   0.38581   2.30692 
 H                    -1.62284   1.0279    1.12352 
 H                    -2.48372  -1.28509   0.65515 
 H                    -1.25474  -1.98745   1.79023 
 H                    -3.15051  -1.63608   2.8939 
 H                     0.27184   0.65271  -2.8939 
 H                     0.4274   -1.12648  -2.85481 
 H                     1.22596   1.67808   1.1248 
 H                     0.09418   2.17254  -0.17321 
 

 GradGradGradGradGradGradGradGradGradGradGradGradGradGradGradGradGradGrad
 Berny optimization.
 Initialization pass.
                           ----------------------------
                           !    Initial Parameters    !
                           ! (Angstroms and Degrees)  !
 --------------------------                            --------------------------
 ! Name  Definition              Value          Derivative Info.                !
 --------------------------------------------------------------------------------
 ! R1    R(1,2)                  1.5312         estimate D2E/DX2                !
 ! R2    R(1,11)                 1.5359         estimate D2E/DX2                !
 ! R3    R(1,12)                 1.1159         estimate D2E/DX2                !
 ! R4    R(1,13)                 1.1157         estimate D2E/DX2                !
 ! R5    R(2,3)                  1.5323         estimate D2E/DX2                !
 ! R6    R(2,10)                 1.5325         estimate D2E/DX2                !
 ! R7    R(2,14)                 1.1175         estimate D2E/DX2                !
 ! R8    R(3,4)                  1.5377         estimate D2E/DX2                !
 ! R9    R(3,15)                 1.1161         estimate D2E/DX2                !
 ! R10   R(3,16)                 1.1158         estimate D2E/DX2                !
 ! R11   R(4,5)                  1.5225         estimate D2E/DX2                !
 ! R12   R(4,17)                 1.1152         estimate D2E/DX2                !
 ! R13   R(4,18)                 1.1132         estimate D2E/DX2                !
 ! R14   R(5,6)                  1.5218         estimate D2E/DX2                !
 ! R15   R(5,7)                  1.5287         estimate D2E/DX2                !
 ! R16   R(5,11)                 1.5259         estimate D2E/DX2                !
 ! R17   R(6,10)                 1.5373         estimate D2E/DX2                !
 ! R18   R(6,19)                 1.1145         estimate D2E/DX2                !
 ! R19   R(6,20)                 1.1153         estimate D2E/DX2                !
 ! R20   R(7,8)                  1.5317         estimate D2E/DX2                !
 ! R21   R(7,21)                 1.1163         estimate D2E/DX2                !
 ! R22   R(7,22)                 1.1166         estimate D2E/DX2                !
 ! R23   R(8,9)                  1.4164         estimate D2E/DX2                !
 ! R24   R(8,23)                 1.1117         estimate D2E/DX2                !
 ! R25   R(8,24)                 1.1108         estimate D2E/DX2                !
 ! R26   R(9,25)                 0.9598         estimate D2E/DX2                !
 ! R27   R(10,26)                1.1159         estimate D2E/DX2                !
 ! R28   R(10,27)                1.1159         estimate D2E/DX2                !
 ! R29   R(11,28)                1.1156         estimate D2E/DX2                !
 ! R30   R(11,29)                1.1157         estimate D2E/DX2                !
 ! A1    A(2,1,11)             109.8274         estimate D2E/DX2                !
 ! A2    A(2,1,12)             109.4013         estimate D2E/DX2                !
 ! A3    A(2,1,13)             110.1369         estimate D2E/DX2                !
 ! A4    A(11,1,12)            110.6856         estimate D2E/DX2                !
 ! A5    A(11,1,13)            110.3516         estimate D2E/DX2                !
 ! A6    A(12,1,13)            106.3822         estimate D2E/DX2                !
 ! A7    A(1,2,3)              108.2846         estimate D2E/DX2                !
 ! A8    A(1,2,10)             108.3779         estimate D2E/DX2                !
 ! A9    A(1,2,14)             110.384          estimate D2E/DX2                !
 ! A10   A(3,2,10)             108.8349         estimate D2E/DX2                !
 ! A11   A(3,2,14)             110.453          estimate D2E/DX2                !
 ! A12   A(10,2,14)            110.442          estimate D2E/DX2                !
 ! A13   A(2,3,4)              110.3436         estimate D2E/DX2                !
 ! A14   A(2,3,15)             109.0841         estimate D2E/DX2                !
 ! A15   A(2,3,16)             110.0973         estimate D2E/DX2                !
 ! A16   A(4,3,15)             110.6785         estimate D2E/DX2                !
 ! A17   A(4,3,16)             110.2024         estimate D2E/DX2                !
 ! A18   A(15,3,16)            106.354          estimate D2E/DX2                !
 ! A19   A(3,4,5)              109.1074         estimate D2E/DX2                !
 ! A20   A(3,4,17)             110.6902         estimate D2E/DX2                !
 ! A21   A(3,4,18)             108.4395         estimate D2E/DX2                !
 ! A22   A(5,4,17)             109.9777         estimate D2E/DX2                !
 ! A23   A(5,4,18)             111.5859         estimate D2E/DX2                !
 ! A24   A(17,4,18)            107.0224         estimate D2E/DX2                !
 ! A25   A(4,5,6)              109.5838         estimate D2E/DX2                !
 ! A26   A(4,5,7)              110.9137         estimate D2E/DX2                !
 ! A27   A(4,5,11)             109.1584         estimate D2E/DX2                !
 ! A28   A(6,5,7)              110.5475         estimate D2E/DX2                !
 ! A29   A(6,5,11)             109.4236         estimate D2E/DX2                !
 ! A30   A(7,5,11)             107.1639         estimate D2E/DX2                !
 ! A31   A(5,6,10)             109.1238         estimate D2E/DX2                !
 ! A32   A(5,6,19)             110.3831         estimate D2E/DX2                !
 ! A33   A(5,6,20)             110.7019         estimate D2E/DX2                !
 ! A34   A(10,6,19)            109.3185         estimate D2E/DX2                !
 ! A35   A(10,6,20)            109.9499         estimate D2E/DX2                !
 ! A36   A(19,6,20)            107.34           estimate D2E/DX2                !
 ! A37   A(5,7,8)              114.6305         estimate D2E/DX2                !
 ! A38   A(5,7,21)             109.3551         estimate D2E/DX2                !
 ! A39   A(5,7,22)             109.6411         estimate D2E/DX2                !
 ! A40   A(8,7,21)             108.4584         estimate D2E/DX2                !
 ! A41   A(8,7,22)             107.7135         estimate D2E/DX2                !
 ! A42   A(21,7,22)            106.7406         estimate D2E/DX2                !
 ! A43   A(7,8,9)              108.0418         estimate D2E/DX2                !
 ! A44   A(7,8,23)             112.9896         estimate D2E/DX2                !
 ! A45   A(7,8,24)             113.1279         estimate D2E/DX2                !
 ! A46   A(9,8,23)             106.724          estimate D2E/DX2                !
 ! A47   A(9,8,24)             106.0615         estimate D2E/DX2                !
 ! A48   A(23,8,24)            109.4486         estimate D2E/DX2                !
 ! A49   A(8,9,25)             111.0606         estimate D2E/DX2                !
 ! A50   A(2,10,6)             110.2781         estimate D2E/DX2                !
 ! A51   A(2,10,26)            109.3418         estimate D2E/DX2                !
 ! A52   A(2,10,27)            109.9521         estimate D2E/DX2                !
 ! A53   A(6,10,26)            110.5297         estimate D2E/DX2                !
 ! A54   A(6,10,27)            110.3152         estimate D2E/DX2                !
 ! A55   A(26,10,27)           106.346          estimate D2E/DX2                !
 ! A56   A(1,11,5)             109.6432         estimate D2E/DX2                !
 ! A57   A(1,11,28)            109.4051         estimate D2E/DX2                !
 ! A58   A(1,11,29)            110.126          estimate D2E/DX2                !
 ! A59   A(5,11,28)            110.7823         estimate D2E/DX2                !
 ! A60   A(5,11,29)            110.0135         estimate D2E/DX2                !
 ! A61   A(28,11,29)           106.8327         estimate D2E/DX2                !
 ! D1    D(11,1,2,3)           -63.8583         estimate D2E/DX2                !
 ! D2    D(11,1,2,10)           54.05           estimate D2E/DX2                !
 ! D3    D(11,1,2,14)          175.1186         estimate D2E/DX2                !
 ! D4    D(12,1,2,3)            57.8159         estimate D2E/DX2                !
 ! D5    D(12,1,2,10)          175.7242         estimate D2E/DX2                !
 ! D6    D(12,1,2,14)          -63.2072         estimate D2E/DX2                !
 ! D7    D(13,1,2,3)           174.4076         estimate D2E/DX2                !
 ! D8    D(13,1,2,10)          -67.6841         estimate D2E/DX2                !
 ! D9    D(13,1,2,14)           53.3845         estimate D2E/DX2                !
 ! D10   D(2,1,11,5)             8.1946         estimate D2E/DX2                !
 ! D11   D(2,1,11,28)          129.874          estimate D2E/DX2                !
 ! D12   D(2,1,11,29)         -112.992          estimate D2E/DX2                !
 ! D13   D(12,1,11,5)         -112.7087         estimate D2E/DX2                !
 ! D14   D(12,1,11,28)           8.9707         estimate D2E/DX2                !
 ! D15   D(12,1,11,29)         126.1048         estimate D2E/DX2                !
 ! D16   D(13,1,11,5)          129.8003         estimate D2E/DX2                !
 ! D17   D(13,1,11,28)        -108.5203         estimate D2E/DX2                !
 ! D18   D(13,1,11,29)           8.6137         estimate D2E/DX2                !
 ! D19   D(1,2,3,4)             54.5186         estimate D2E/DX2                !
 ! D20   D(1,2,3,15)           176.3079         estimate D2E/DX2                !
 ! D21   D(1,2,3,16)           -67.3421         estimate D2E/DX2                !
 ! D22   D(10,2,3,4)           -63.0974         estimate D2E/DX2                !
 ! D23   D(10,2,3,15)           58.6919         estimate D2E/DX2                !
 ! D24   D(10,2,3,16)          175.0418         estimate D2E/DX2                !
 ! D25   D(14,2,3,4)           175.4989         estimate D2E/DX2                !
 ! D26   D(14,2,3,15)          -62.7118         estimate D2E/DX2                !
 ! D27   D(14,2,3,16)           53.6382         estimate D2E/DX2                !
 ! D28   D(1,2,10,6)           -64.396          estimate D2E/DX2                !
 ! D29   D(1,2,10,26)           57.3341         estimate D2E/DX2                !
 ! D30   D(1,2,10,27)          173.7411         estimate D2E/DX2                !
 ! D31   D(3,2,10,6)            53.1609         estimate D2E/DX2                !
 ! D32   D(3,2,10,26)          174.891          estimate D2E/DX2                !
 ! D33   D(3,2,10,27)          -68.702          estimate D2E/DX2                !
 ! D34   D(14,2,10,6)          174.5712         estimate D2E/DX2                !
 ! D35   D(14,2,10,26)         -63.6986         estimate D2E/DX2                !
 ! D36   D(14,2,10,27)          52.7084         estimate D2E/DX2                !
 ! D37   D(2,3,4,5)              7.9298         estimate D2E/DX2                !
 ! D38   D(2,3,4,17)          -113.224          estimate D2E/DX2                !
 ! D39   D(2,3,4,18)           129.6603         estimate D2E/DX2                !
 ! D40   D(15,3,4,5)          -112.9117         estimate D2E/DX2                !
 ! D41   D(15,3,4,17)          125.9345         estimate D2E/DX2                !
 ! D42   D(15,3,4,18)            8.8188         estimate D2E/DX2                !
 ! D43   D(16,3,4,5)           129.7284         estimate D2E/DX2                !
 ! D44   D(16,3,4,17)            8.5746         estimate D2E/DX2                !
 ! D45   D(16,3,4,18)         -108.5411         estimate D2E/DX2                !
 ! D46   D(3,4,5,6)             55.3449         estimate D2E/DX2                !
 ! D47   D(3,4,5,7)            177.6725         estimate D2E/DX2                !
 ! D48   D(3,4,5,11)           -64.4743         estimate D2E/DX2                !
 ! D49   D(17,4,5,6)           176.9318         estimate D2E/DX2                !
 ! D50   D(17,4,5,7)           -60.7405         estimate D2E/DX2                !
 ! D51   D(17,4,5,11)           57.1126         estimate D2E/DX2                !
 ! D52   D(18,4,5,6)           -64.4604         estimate D2E/DX2                !
 ! D53   D(18,4,5,7)            57.8673         estimate D2E/DX2                !
 ! D54   D(18,4,5,11)          175.7204         estimate D2E/DX2                !
 ! D55   D(4,5,6,10)           -65.2417         estimate D2E/DX2                !
 ! D56   D(4,5,6,19)            54.9152         estimate D2E/DX2                !
 ! D57   D(4,5,6,20)           173.6209         estimate D2E/DX2                !
 ! D58   D(7,5,6,10)           172.2126         estimate D2E/DX2                !
 ! D59   D(7,5,6,19)           -67.6305         estimate D2E/DX2                !
 ! D60   D(7,5,6,20)            51.0752         estimate D2E/DX2                !
 ! D61   D(11,5,6,10)           54.4151         estimate D2E/DX2                !
 ! D62   D(11,5,6,19)          174.5719         estimate D2E/DX2                !
 ! D63   D(11,5,6,20)          -66.7223         estimate D2E/DX2                !
 ! D64   D(4,5,7,8)            -64.2281         estimate D2E/DX2                !
 ! D65   D(4,5,7,21)            57.7926         estimate D2E/DX2                !
 ! D66   D(4,5,7,22)           174.5055         estimate D2E/DX2                !
 ! D67   D(6,5,7,8)             57.5372         estimate D2E/DX2                !
 ! D68   D(6,5,7,21)           179.5579         estimate D2E/DX2                !
 ! D69   D(6,5,7,22)           -63.7292         estimate D2E/DX2                !
 ! D70   D(11,5,7,8)           176.7115         estimate D2E/DX2                !
 ! D71   D(11,5,7,21)          -61.2678         estimate D2E/DX2                !
 ! D72   D(11,5,7,22)           55.4451         estimate D2E/DX2                !
 ! D73   D(4,5,11,1)            55.2049         estimate D2E/DX2                !
 ! D74   D(4,5,11,28)          -65.6447         estimate D2E/DX2                !
 ! D75   D(4,5,11,29)          176.4593         estimate D2E/DX2                !
 ! D76   D(6,5,11,1)           -64.7131         estimate D2E/DX2                !
 ! D77   D(6,5,11,28)          174.4372         estimate D2E/DX2                !
 ! D78   D(6,5,11,29)           56.5412         estimate D2E/DX2                !
 ! D79   D(7,5,11,1)           175.3911         estimate D2E/DX2                !
 ! D80   D(7,5,11,28)           54.5415         estimate D2E/DX2                !
 ! D81   D(7,5,11,29)          -63.3546         estimate D2E/DX2                !
 ! D82   D(5,6,10,2)             8.8035         estimate D2E/DX2                !
 ! D83   D(5,6,10,26)         -112.2201         estimate D2E/DX2                !
 ! D84   D(5,6,10,27)          130.4513         estimate D2E/DX2                !
 ! D85   D(19,6,10,2)         -112.0063         estimate D2E/DX2                !
 ! D86   D(19,6,10,26)         126.9701         estimate D2E/DX2                !
 ! D87   D(19,6,10,27)           9.6415         estimate D2E/DX2                !
 ! D88   D(20,6,10,2)          130.3979         estimate D2E/DX2                !
 ! D89   D(20,6,10,26)           9.3743         estimate D2E/DX2                !
 ! D90   D(20,6,10,27)        -107.9544         estimate D2E/DX2                !
 ! D91   D(5,7,8,9)            176.8897         estimate D2E/DX2                !
 ! D92   D(5,7,8,23)           -65.2741         estimate D2E/DX2                !
 ! D93   D(5,7,8,24)            59.7908         estimate D2E/DX2                !
 ! D94   D(21,7,8,9)            54.3825         estimate D2E/DX2                !
 ! D95   D(21,7,8,23)          172.2188         estimate D2E/DX2                !
 ! D96   D(21,7,8,24)          -62.7164         estimate D2E/DX2                !
 ! D97   D(22,7,8,9)           -60.7926         estimate D2E/DX2                !
 ! D98   D(22,7,8,23)           57.0436         estimate D2E/DX2                !
 ! D99   D(22,7,8,24)         -177.8915         estimate D2E/DX2                !
 ! D100  D(7,8,9,25)          -169.3376         estimate D2E/DX2                !
 ! D101  D(23,8,9,25)           68.8746         estimate D2E/DX2                !
 ! D102  D(24,8,9,25)          -47.7598         estimate D2E/DX2                !
 --------------------------------------------------------------------------------
 Trust Radius=3.00D-01 FncErr=1.00D-07 GrdErr=1.00D-06
 Number of steps in this run=    174 maximum allowed number of steps=    174.
 GradGradGradGradGradGradGradGradGradGradGradGradGradGradGradGradGradGrad

                          Input orientation:                          
 ---------------------------------------------------------------------
 Center     Atomic      Atomic             Coordinates (Angstroms)
 Number     Number       Type             X           Y           Z
 ---------------------------------------------------------------------
      1          6           0        1.956834    1.275622   -0.886698
      2          6           0        1.881296   -0.065808   -1.621087
      3          6           0        2.102890   -1.186244   -0.599610
      4          6           0        1.107886   -1.052284    0.565078
      5          7           0        0.094264    0.033841    0.232178
      6          6           0       -0.573284   -0.281969   -1.098438
      7          6           0       -0.951376    0.162427    1.339881
      8          6           0       -1.833367   -1.075088    1.531961
      9          8           0       -2.694940   -0.833587    2.629937
     10          6           0        0.477444   -0.211312   -2.218327
     11          6           0        0.812978    1.376240    0.133351
     12          1           0        2.946568    1.365138   -0.379176
     13          1           0        1.900498    2.117127   -1.617145
     14          1           0        2.654782   -0.112850   -2.426251
     15          1           0        1.983815   -2.172538   -1.108231
     16          1           0        3.150506   -1.154533   -0.216980
     17          1           0        1.640793   -0.798987    1.511424
     18          1           0        0.615139   -2.037994    0.722356
     19          1           0       -1.020112   -1.302750   -1.075957
     20          1           0       -1.399417    0.438015   -1.305772
     21          1           0       -0.440366    0.385805    2.306916
     22          1           0       -1.622836    1.027897    1.123519
     23          1           0       -2.483718   -1.285087    0.655150
     24          1           0       -1.254736   -1.987449    1.790226
     25          1           0       -3.150506   -1.636082    2.893903
     26          1           0        0.271838    0.652709   -2.893903
     27          1           0        0.427404   -1.126478   -2.854812
     28          1           0        1.225960    1.678077    1.124803
     29          1           0        0.094180    2.172538   -0.173205
 ---------------------------------------------------------------------
                    Distance matrix (angstroms):
                    1          2          3          4          5
     1  C    0.000000
     2  C    1.531165   0.000000
     3  C    2.482848   1.532285   0.000000
     4  C    2.871848   2.520043   1.537685   0.000000
     5  N    2.502613   2.576433   2.493002   1.522472   0.000000
     6  C    2.978661   2.518899   2.868527   2.487369   1.521807
     7  C    3.828125   4.104078   3.861228   2.513245   1.528693
     8  C    5.073596   4.975850   4.477730   3.096183   2.575834
     9  O    6.201168   6.293062   5.794266   4.332777   3.779066
    10  C    2.484513   1.532536   2.492551   2.975237   2.492369
    11  C    1.535914   2.509753   2.960984   2.484167   1.525894
    12  H    1.115870   2.173650   2.696281   3.180613   3.206516
    13  H    1.115732   2.183023   3.462456   3.928804   3.320024
    14  H    2.187512   1.117489   2.189378   3.496208   3.693916
    15  H    3.455374   2.170678   1.116087   2.195947   3.199251
    16  H    2.789091   2.183514   1.115756   2.189604   3.309772
    17  H    3.186671   3.226146   2.195442   1.115222   2.172976
    18  H    3.920364   3.314272   2.164827   1.113176   2.191822
    19  H    3.942845   3.200837   3.161269   2.698908   2.177045
    20  H    3.484484   3.334117   3.924670   3.465204   2.181680
    21  H    4.091151   4.585115   4.169818   2.738464   2.171231
    22  H    4.112952   4.583448   4.663971   3.477909   2.175102
    23  H    5.352852   5.071612   4.756171   3.600268   2.926511
    24  H    5.303559   5.016419   4.198440   2.820905   2.886681
    25  H    6.989699   6.940456   6.324963   4.888573   4.516852
    26  H    2.693716   2.174093   3.463853   3.945951   3.191694
    27  H    3.461606   2.181949   2.810118   3.487722   3.314639
    28  H    2.177678   3.318209   3.456435   2.789642   2.186556
    29  H    2.187009   3.209414   3.936769   3.460078   2.176777
                    6          7          8          9         10
     6  C    0.000000
     7  C    2.507158   0.000000
     8  C    3.022556   1.531746   0.000000
     9  O    4.325100   2.386693   1.416398   0.000000
    10  C    1.537262   3.852538   4.488944   5.827256   0.000000
    11  C    2.487706   2.458048   3.868884   4.839604   2.857148
    12  H    3.952171   4.426696   5.696923   6.761343   3.458937
    13  H    3.484870   4.549510   5.835140   6.918271   2.794303
    14  H    3.494581   5.221485   6.061091   7.396217   2.189458
    15  H    3.180110   4.478913   4.769265   6.136566   2.710696
    16  H    3.924914   4.580790   5.282433   6.509776   3.469916
    17  H    3.461333   2.770033   3.485174   4.477817   3.950922
    18  H    2.794864   2.770769   2.752786   4.005756   3.464584
    19  H    1.114520   2.826259   2.741250   4.093753   2.176906
    20  H    1.115285   2.697438   3.245077   4.334185   2.185632
    21  H    3.472755   1.116327   2.162225   2.583479   4.655829
    22  H    2.784673   1.116561   2.152602   2.623704   4.136998
    23  H    2.780481   2.216354   1.111689   2.036725   4.263607
    24  H    3.423072   2.217387   1.110818   2.027486   4.714192
    25  H    4.941101   3.238177   1.975969   0.959800   6.428599
    26  H    2.193524   4.434135   5.196676   6.443885   1.115889
    27  H    2.190758   4.599756   4.935332   6.318013   1.115861
    28  H    3.467255   2.661625   4.135841   4.893602   3.912363
    29  H    2.706690   2.724548   4.143682   4.967251   3.164199
                   11         12         13         14         15
    11  C    0.000000
    12  H    2.194314   0.000000
    13  H    2.189943   1.786706   0.000000
    14  H    3.487290   2.541673   2.489256   0.000000
    15  H    3.937793   3.738123   4.320551   2.535683   0.000000
    16  H    3.462886   2.533109   3.771835   2.492333   1.786569
    17  H    2.704806   3.156399   4.284753   4.123620   2.977734
    18  H    3.470311   4.269689   4.938668   4.216640   2.289634
    19  H    3.464049   4.830909   4.529725   4.091944   3.127483
    20  H    2.801077   4.539353   3.715617   4.242105   4.277881
    21  H    2.697446   4.432325   4.886243   5.677276   4.907647
    22  H    2.652351   4.821958   4.594730   5.674521   5.313325
    23  H    4.268857   6.130378   5.996644   6.105191   4.884254
    24  H    4.281948   5.796301   6.197840   6.047903   4.350118
    25  H    5.692446   7.542856   7.742659   8.020327   6.531930
    26  H    3.159208   3.739731   2.535185   2.546213   3.755198
    27  H    3.916808   4.322396   3.771313   2.484415   2.562655
    28  H    1.115633   2.306594   2.857629   4.225983   4.515310
    29  H    1.115678   2.971605   2.313183   4.105593   4.829563
                   16         17         18         19         20
    16  H    0.000000
    17  H    2.322289   0.000000
    18  H    2.844458   1.791573   0.000000
    19  H    4.260735   3.745495   2.539401   0.000000
    20  H    4.942011   4.325465   3.781846   1.796371   0.000000
    21  H    4.651565   2.523443   3.082162   3.825069   3.738184
    22  H    5.417078   3.760219   3.816956   3.260811   2.509847
    23  H    5.702818   4.240411   3.189718   2.266977   2.826660
    24  H    4.912106   3.142334   2.153911   2.956157   3.935608
    25  H    7.043595   5.056533   4.365459   4.517685   5.000546
    26  H    4.326519   4.836152   4.520516   2.966122   2.315458
    27  H    3.791336   4.543521   3.696246   2.300152   2.860846
    28  H    3.678035   2.541143   3.787380   4.332841   3.786562
    29  H    4.518014   3.749660   4.336128   3.759552   2.553842
                   21         22         23         24         25
    21  H    0.000000
    22  H    1.791911   0.000000
    23  H    3.113760   2.512047   0.000000
    24  H    2.561738   3.110033   1.814416   0.000000
    25  H    3.431827   3.544689   2.362164   2.221600   0.000000
    26  H    5.256138   4.457604   4.893252   5.589448   7.102795
    27  H    5.448253   4.967085   4.562852   5.014703   6.790351
    28  H    2.417437   2.922050   4.771019   4.475793   5.767740
    29  H    3.103088   2.437179   4.391685   4.793759   5.868622
                   26         27         28         29
    26  H    0.000000
    27  H    1.786403   0.000000
    28  H    4.255787   4.933615   0.000000
    29  H    3.121480   4.264453   1.791715   0.000000
 Stoichiometry    C9H18NO(1+)
 Framework group  C1[X(C9H18NO)]
 Deg. of freedom    81
 Full point group                 C1      NOp   1
 Largest Abelian subgroup         C1      NOp   1
 Largest concise Abelian subgroup C1      NOp   1
                         Standard orientation:                         
 ---------------------------------------------------------------------
 Center     Atomic      Atomic             Coordinates (Angstroms)
 Number     Number       Type             X           Y           Z
 ---------------------------------------------------------------------
      1          6           0        2.189897    1.189561    0.060135
      2          6           0        2.368489   -0.330241    0.007449
      3          6           0        1.664111   -0.939524    1.224216
      4          6           0        0.196963   -0.482185    1.277097
      5          7           0       -0.136932    0.270385   -0.003556
      6          6           0        0.179022   -0.605660   -1.207140
      7          6           0       -1.605329    0.695177   -0.019808
      8          6           0       -2.605316   -0.464947   -0.039446
      9          8           0       -3.911146    0.080430    0.020173
     10          6           0        1.695255   -0.851983   -1.266602
     11          6           0        0.701009    1.543934   -0.068958
     12          1           0        2.605921    1.578628    1.019674
     13          1           0        2.776218    1.673744   -0.756352
     14          1           0        3.454166   -0.594951    0.011636
     15          1           0        1.728176   -2.052127    1.163715
     16          1           0        2.193577   -0.644834    2.161091
     17          1           0        0.020340    0.173741    2.161565
     18          1           0       -0.447623   -1.380842    1.403927
     19          1           0       -0.350377   -1.583020   -1.125544
     20          1           0       -0.164725   -0.119132   -2.150003
     21          1           0       -1.816989    1.329153    0.874317
     22          1           0       -1.802730    1.329073   -0.917537
     23          1           0       -2.552683   -1.067797   -0.971999
     24          1           0       -2.512143   -1.136233    0.840673
     25          1           0       -4.564465   -0.605154    0.176267
     26          1           0        2.139881   -0.343004   -2.154554
     27          1           0        1.906317   -1.940695   -1.390311
     28          1           0        0.415408    2.248077    0.747896
     29          1           0        0.514816    2.074443   -1.032613
 ---------------------------------------------------------------------
 Rotational constants (GHZ):      2.2584239      0.6765247      0.6666075
 Standard basis: 6-311++G(d,p) (5D, 7F)
 There are   379 symmetry adapted cartesian basis functions of A   symmetry.
 There are   368 symmetry adapted basis functions of A   symmetry.
   368 basis functions,   558 primitive gaussians,   379 cartesian basis functions
    43 alpha electrons       43 beta electrons
       nuclear repulsion energy       703.6604361664 Hartrees.
 NAtoms=   29 NActive=   29 NUniq=   29 SFac= 1.00D+00 NAtFMM=   60 NAOKFM=F Big=F
 Integral buffers will be    131072 words long.
 Raffenetti 2 integral format.
 Two-electron integral symmetry is turned on.
 One-electron integrals computed using PRISM.
 NBasis=   368 RedAO= T EigKep=  6.23D-06  NBF=   368
 NBsUse=   368 1.00D-06 EigRej= -1.00D+00 NBFU=   368
 ExpMin= 3.60D-02 ExpMax= 8.59D+03 ExpMxC= 1.30D+03 IAcc=3 IRadAn=         5 AccDes= 0.00D+00
 Harris functional with IExCor=  402 and IRadAn=       5 diagonalized for initial guess.
 HarFok:  IExCor=  402 AccDes= 0.00D+00 IRadAn=         5 IDoV= 1 UseB2=F ITyADJ=14
 ICtDFT=  3500011 ScaDFX=  1.000000  1.000000  1.000000  1.000000
 FoFCou: FMM=F IPFlag=           0 FMFlag=      100000 FMFlg1=           0
         NFxFlg=           0 DoJE=T BraDBF=F KetDBF=T FulRan=T
         wScrn=  0.000000 ICntrl=     500 IOpCl=  0 I1Cent=   200000004 NGrid=           0
         NMat0=    1 NMatS0=      1 NMatT0=    0 NMatD0=    1 NMtDS0=    0 NMtDT0=    0
 Petite list used in FoFCou.
 Keep R1 ints in memory in canonical form, NReq=2332863075.
 Requested convergence on RMS density matrix=1.00D-08 within 128 cycles.
 Requested convergence on MAX density matrix=1.00D-06.
 Requested convergence on             energy=1.00D-06.
 No special actions if energy rises.
 SCF Done:  E(RB3LYP) =  -483.651405450     A.U. after   12 cycles
            NFock= 12  Conv=0.67D-08     -V/T= 2.0056

 **********************************************************************

            Population analysis using the SCF density.

 **********************************************************************

 Orbital symmetries:
       Occupied  (A) (A) (A) (A) (A) (A) (A) (A) (A) (A) (A) (A)
                 (A) (A) (A) (A) (A) (A) (A) (A) (A) (A) (A) (A)
                 (A) (A) (A) (A) (A) (A) (A) (A) (A) (A) (A) (A)
                 (A) (A) (A) (A) (A) (A) (A)
       Virtual   (A) (A) (A) (A) (A) (A) (A) (A) (A) (A) (A) (A)
                 (A) (A) (A) (A) (A) (A) (A) (A) (A) (A) (A) (A)
                 (A) (A) (A) (A) (A) (A) (A) (A) (A) (A) (A) (A)
                 (A) (A) (A) (A) (A) (A) (A) (A) (A) (A) (A) (A)
                 (A) (A) (A) (A) (A) (A) (A) (A) (A) (A) (A) (A)
                 (A) (A) (A) (A) (A) (A) (A) (A) (A) (A) (A) (A)
                 (A) (A) (A) (A) (A) (A) (A) (A) (A) (A) (A) (A)
                 (A) (A) (A) (A) (A) (A) (A) (A) (A) (A) (A) (A)
                 (A) (A) (A) (A) (A) (A) (A) (A) (A) (A) (A) (A)
                 (A) (A) (A) (A) (A) (A) (A) (A) (A) (A) (A) (A)
                 (A) (A) (A) (A) (A) (A) (A) (A) (A) (A) (A) (A)
                 (A) (A) (A) (A) (A) (A) (A) (A) (A) (A) (A) (A)
                 (A) (A) (A) (A) (A) (A) (A) (A) (A) (A) (A) (A)
                 (A) (A) (A) (A) (A) (A) (A) (A) (A) (A) (A) (A)
                 (A) (A) (A) (A) (A) (A) (A) (A) (A) (A) (A) (A)
                 (A) (A) (A) (A) (A) (A) (A) (A) (A) (A) (A) (A)
                 (A) (A) (A) (A) (A) (A) (A) (A) (A) (A) (A) (A)
                 (A) (A) (A) (A) (A) (A) (A) (A) (A) (A) (A) (A)
                 (A) (A) (A) (A) (A) (A) (A) (A) (A) (A) (A) (A)
                 (A) (A) (A) (A) (A) (A) (A) (A) (A) (A) (A) (A)
                 (A) (A) (A) (A) (A) (A) (A) (A) (A) (A) (A) (A)
                 (A) (A) (A) (A) (A) (A) (A) (A) (A) (A) (A) (A)
                 (A) (A) (A) (A) (A) (A) (A) (A) (A) (A) (A) (A)
                 (A) (A) (A) (A) (A) (A) (A) (A) (A) (A) (A) (A)
                 (A) (A) (A) (A) (A) (A) (A) (A) (A) (A) (A) (A)
                 (A) (A) (A) (A) (A) (A) (A) (A) (A) (A) (A) (A)
                 (A) (A) (A) (A) (A) (A) (A) (A) (A) (A) (A) (A)
                 (A)
 The electronic state is 1-A.
 Alpha  occ. eigenvalues --  -19.25846 -14.60572 -10.38971 -10.38938 -10.38862
 Alpha  occ. eigenvalues --  -10.38745 -10.37828 -10.33439 -10.33004 -10.32984
 Alpha  occ. eigenvalues --  -10.32866  -1.17876  -1.16483  -0.99031  -0.93712
 Alpha  occ. eigenvalues --   -0.93658  -0.90891  -0.81886  -0.80159  -0.80075
 Alpha  occ. eigenvalues --   -0.76961  -0.70052  -0.68342  -0.67769  -0.66724
 Alpha  occ. eigenvalues --   -0.64663  -0.63340  -0.60282  -0.59420  -0.58563
 Alpha  occ. eigenvalues --   -0.58124  -0.57236  -0.55925  -0.55439  -0.55188
 Alpha  occ. eigenvalues --   -0.54156  -0.52840  -0.49029  -0.48490  -0.47489
 Alpha  occ. eigenvalues --   -0.47089  -0.46663  -0.41621
 Alpha virt. eigenvalues --   -0.14684  -0.13134  -0.12192  -0.12072  -0.10790
 Alpha virt. eigenvalues --   -0.10517  -0.10301  -0.09909  -0.08514  -0.08367
 Alpha virt. eigenvalues --   -0.07879  -0.05900  -0.05719  -0.05541  -0.05384
 Alpha virt. eigenvalues --   -0.04908  -0.04189  -0.03734  -0.03335  -0.03258
 Alpha virt. eigenvalues --   -0.02168  -0.01871  -0.01395  -0.00997  -0.00956
 Alpha virt. eigenvalues --   -0.00608  -0.00476   0.00004   0.00648   0.00714
 Alpha virt. eigenvalues --    0.01066   0.01199   0.01389   0.01756   0.01976
 Alpha virt. eigenvalues --    0.02442   0.02844   0.03179   0.03343   0.03659
 Alpha virt. eigenvalues --    0.03784   0.03955   0.04361   0.04944   0.05117
 Alpha virt. eigenvalues --    0.05560   0.05900   0.06492   0.06591   0.07014
 Alpha virt. eigenvalues --    0.07228   0.07686   0.07901   0.08425   0.08534
 Alpha virt. eigenvalues --    0.08811   0.09580   0.09754   0.10677   0.10939
 Alpha virt. eigenvalues --    0.11466   0.11785   0.11981   0.12693   0.12899
 Alpha virt. eigenvalues --    0.13534   0.14249   0.14742   0.15158   0.15731
 Alpha virt. eigenvalues --    0.15879   0.16959   0.17439   0.17851   0.18709
 Alpha virt. eigenvalues --    0.19011   0.19798   0.20570   0.21382   0.22279
 Alpha virt. eigenvalues --    0.22462   0.22734   0.22889   0.23315   0.23657
 Alpha virt. eigenvalues --    0.24094   0.24581   0.25256   0.27218   0.29046
 Alpha virt. eigenvalues --    0.30704   0.31470   0.31779   0.32862   0.34322
 Alpha virt. eigenvalues --    0.34991   0.36728   0.37734   0.38838   0.40089
 Alpha virt. eigenvalues --    0.41820   0.43137   0.44627   0.45832   0.46030
 Alpha virt. eigenvalues --    0.46334   0.47046   0.47487   0.48110   0.48613
 Alpha virt. eigenvalues --    0.49688   0.50743   0.51086   0.52728   0.52995
 Alpha virt. eigenvalues --    0.54687   0.54885   0.55462   0.56064   0.56432
 Alpha virt. eigenvalues --    0.57520   0.57803   0.58548   0.58870   0.59680
 Alpha virt. eigenvalues --    0.60376   0.61377   0.62152   0.62237   0.62689
 Alpha virt. eigenvalues --    0.63097   0.63689   0.65878   0.66388   0.66772
 Alpha virt. eigenvalues --    0.67206   0.70939   0.71948   0.76190   0.77956
 Alpha virt. eigenvalues --    0.79250   0.80905   0.82906   0.86439   0.88225
 Alpha virt. eigenvalues --    0.89576   0.94236   0.95998   0.96990   0.99057
 Alpha virt. eigenvalues --    1.00697   1.01935   1.02525   1.05142   1.07160
 Alpha virt. eigenvalues --    1.08109   1.11171   1.14895   1.19345   1.19546
 Alpha virt. eigenvalues --    1.19872   1.25785   1.26668   1.27253   1.28053
 Alpha virt. eigenvalues --    1.28490   1.28881   1.33267   1.35074   1.36394
 Alpha virt. eigenvalues --    1.37619   1.38272   1.40226   1.40412   1.41090
 Alpha virt. eigenvalues --    1.42704   1.42906   1.43932   1.45150   1.46838
 Alpha virt. eigenvalues --    1.47508   1.48377   1.49155   1.50044   1.51259
 Alpha virt. eigenvalues --    1.52634   1.52747   1.54017   1.54558   1.55842
 Alpha virt. eigenvalues --    1.56728   1.57567   1.57928   1.59625   1.61052
 Alpha virt. eigenvalues --    1.63500   1.64417   1.65208   1.66463   1.67864
 Alpha virt. eigenvalues --    1.69441   1.69933   1.71263   1.71642   1.72408
 Alpha virt. eigenvalues --    1.73133   1.74542   1.75841   1.77334   1.78837
 Alpha virt. eigenvalues --    1.79081   1.81152   1.86529   1.86774   1.88540
 Alpha virt. eigenvalues --    1.93358   1.94002   1.96284   1.96722   1.97978
 Alpha virt. eigenvalues --    2.01941   2.02849   2.03701   2.05168   2.07292
 Alpha virt. eigenvalues --    2.07789   2.10532   2.12505   2.12850   2.13902
 Alpha virt. eigenvalues --    2.15659   2.17032   2.17982   2.19949   2.22487
 Alpha virt. eigenvalues --    2.23596   2.26348   2.27258   2.29261   2.30092
 Alpha virt. eigenvalues --    2.31381   2.31638   2.35227   2.35825   2.36651
 Alpha virt. eigenvalues --    2.36979   2.41256   2.45497   2.45704   2.46371
 Alpha virt. eigenvalues --    2.47136   2.48194   2.49502   2.52922   2.53747
 Alpha virt. eigenvalues --    2.54480   2.55407   2.58851   2.60918   2.62997
 Alpha virt. eigenvalues --    2.65978   2.67146   2.68127   2.70055   2.71246
 Alpha virt. eigenvalues --    2.74120   2.75282   2.76116   2.78639   2.79627
 Alpha virt. eigenvalues --    2.80631   2.82978   2.84896   2.88084   2.91209
 Alpha virt. eigenvalues --    2.95217   2.96311   3.01239   3.04302   3.04619
 Alpha virt. eigenvalues --    3.06493   3.07112   3.12326   3.14471   3.14790
 Alpha virt. eigenvalues --    3.18651   3.34301   3.36967   3.38349   3.41503
 Alpha virt. eigenvalues --    3.45854   3.46131   3.46595   3.59801   3.64569
 Alpha virt. eigenvalues --    3.67454   3.74713   3.77658   3.79597   3.79822
 Alpha virt. eigenvalues --    3.85520   3.97505   3.97772   3.98691   4.03179
 Alpha virt. eigenvalues --    4.08952   4.09349   4.09452   4.54209   4.56315
 Alpha virt. eigenvalues --    4.56566   4.93875   5.26241   5.55302  23.63458
 Alpha virt. eigenvalues --   23.64727  23.69550  23.70761  23.71684  23.75772
 Alpha virt. eigenvalues --   23.78718  23.79172  23.84617  35.35861  49.79369
          Condensed to atoms (all electrons):
               1          2          3          4          5          6
     1  C    6.416953  -0.003975  -0.184576   0.183504  -0.002568   0.376007
     2  C   -0.003975   5.751412  -0.059085   0.030553  -0.228817  -0.012064
     3  C   -0.184576  -0.059085   6.792156  -0.885750  -0.055229   0.091092
     4  C    0.183504   0.030553  -0.885750   6.904911   0.133303  -0.507393
     5  N   -0.002568  -0.228817  -0.055229   0.133303   7.117625   0.136852
     6  C    0.376007  -0.012064   0.091092  -0.507393   0.136852   7.028404
     7  C   -0.107811   0.003523  -0.039412  -0.099691   0.107356  -0.152212
     8  C   -0.015764   0.009340  -0.071098   0.028496  -0.103922   0.097917
     9  O   -0.000118   0.001634  -0.002183  -0.008389   0.016678  -0.022434
    10  C   -0.317279   0.044863  -0.122104   0.288603  -0.125480  -0.933856
    11  C   -0.535050   0.018714   0.433160  -0.550632   0.159710  -0.601928
    12  H    0.522589  -0.053609  -0.045458   0.011545   0.026903   0.033444
    13  H    0.486771  -0.050275  -0.014501   0.022227   0.008549   0.000381
    14  H   -0.015211   0.342710  -0.003501   0.006338  -0.035821   0.002354
    15  H   -0.011166  -0.057105   0.534602  -0.148537   0.020273   0.019029
    16  H   -0.023365  -0.032234   0.443456  -0.067109   0.009582   0.023807
    17  H   -0.013757   0.025676  -0.060919   0.419586  -0.013159  -0.008461
    18  H    0.000214  -0.000888  -0.030798   0.394207  -0.025298   0.005843
    19  H    0.000167   0.017325  -0.033612   0.031633  -0.025516   0.368162
    20  H    0.022563   0.008205   0.019115  -0.009611  -0.002982   0.442267
    21  H   -0.021964   0.001065  -0.026956  -0.015185  -0.018271   0.041256
    22  H    0.011919  -0.003616  -0.007410   0.016772   0.008751  -0.051656
    23  H   -0.007740   0.002210  -0.008253   0.011059  -0.035849   0.023211
    24  H    0.008905  -0.002182   0.004621  -0.035865   0.033628  -0.022481
    25  H    0.000216   0.000485  -0.000621   0.001422  -0.000757   0.006437
    26  H   -0.031102  -0.049940  -0.013749   0.024366   0.029815  -0.131901
    27  H   -0.016897  -0.043872  -0.032742   0.018912  -0.004651  -0.072738
    28  H   -0.048658   0.005159   0.017512  -0.027870  -0.019570  -0.004002
    29  H   -0.050210   0.016158   0.000642  -0.002171  -0.014808   0.004633
               7          8          9         10         11         12
     1  C   -0.107811  -0.015764  -0.000118  -0.317279  -0.535050   0.522589
     2  C    0.003523   0.009340   0.001634   0.044863   0.018714  -0.053609
     3  C   -0.039412  -0.071098  -0.002183  -0.122104   0.433160  -0.045458
     4  C   -0.099691   0.028496  -0.008389   0.288603  -0.550632   0.011545
     5  N    0.107356  -0.103922   0.016678  -0.125480   0.159710   0.026903
     6  C   -0.152212   0.097917  -0.022434  -0.933856  -0.601928   0.033444
     7  C    6.616788  -0.553642   0.093934   0.021795  -0.216758  -0.006938
     8  C   -0.553642   6.188183   0.028328   0.000401  -0.244998   0.001995
     9  O    0.093934   0.028328   7.997079  -0.002453   0.030077  -0.000052
    10  C    0.021795   0.000401  -0.002453   6.822181   0.251397  -0.019290
    11  C   -0.216758  -0.244998   0.030077   0.251397   6.871796  -0.139964
    12  H   -0.006938   0.001995  -0.000052  -0.019290  -0.139964   0.484547
    13  H    0.003077   0.001501  -0.000024  -0.009713  -0.097893   0.006712
    14  H    0.005029  -0.000668   0.000027  -0.011921   0.015594  -0.013394
    15  H    0.003161  -0.013750  -0.000170  -0.044739   0.028254  -0.001815
    16  H   -0.007254   0.007204   0.000250  -0.016014   0.004982   0.005312
    17  H   -0.016284  -0.005831   0.002187   0.015472   0.000196  -0.004755
    18  H    0.001285   0.020343  -0.003013  -0.002648  -0.004728   0.000347
    19  H   -0.014071   0.025759   0.000610  -0.023502  -0.008454  -0.000650
    20  H   -0.013711  -0.022707   0.003550  -0.082263  -0.003678   0.001070
    21  H    0.303291   0.099364   0.008276  -0.004836  -0.056533   0.002036
    22  H    0.426670  -0.076859   0.003175  -0.012722   0.008206  -0.000656
    23  H   -0.140256   0.511233  -0.073654  -0.002857  -0.020881   0.000048
    24  H    0.055609   0.270274  -0.041620  -0.010704   0.032656   0.000201
    25  H   -0.109182   0.148223   0.219649  -0.000274  -0.006419   0.000020
    26  H   -0.007312  -0.002610   0.000109   0.486748   0.014639  -0.001271
    27  H    0.000674   0.006250  -0.000200   0.485569   0.012208  -0.001106
    28  H    0.010684  -0.020869   0.000500   0.003725   0.439908  -0.009283
    29  H   -0.007027   0.003622   0.000905  -0.015246   0.404143   0.004597
              13         14         15         16         17         18
     1  C    0.486771  -0.015211  -0.011166  -0.023365  -0.013757   0.000214
     2  C   -0.050275   0.342710  -0.057105  -0.032234   0.025676  -0.000888
     3  C   -0.014501  -0.003501   0.534602   0.443456  -0.060919  -0.030798
     4  C    0.022227   0.006338  -0.148537  -0.067109   0.419586   0.394207
     5  N    0.008549  -0.035821   0.020273   0.009582  -0.013159  -0.025298
     6  C    0.000381   0.002354   0.019029   0.023807  -0.008461   0.005843
     7  C    0.003077   0.005029   0.003161  -0.007254  -0.016284   0.001285
     8  C    0.001501  -0.000668  -0.013750   0.007204  -0.005831   0.020343
     9  O   -0.000024   0.000027  -0.000170   0.000250   0.002187  -0.003013
    10  C   -0.009713  -0.011921  -0.044739  -0.016014   0.015472  -0.002648
    11  C   -0.097893   0.015594   0.028254   0.004982   0.000196  -0.004728
    12  H    0.006712  -0.013394  -0.001815   0.005312  -0.004755   0.000347
    13  H    0.448536  -0.004793  -0.001662  -0.001040  -0.000738  -0.000816
    14  H   -0.004793   0.445922  -0.009005  -0.007410   0.000353   0.001589
    15  H   -0.001662  -0.009005   0.489235   0.002478   0.003789  -0.009129
    16  H   -0.001040  -0.007410   0.002478   0.457388  -0.007105   0.000979
    17  H   -0.000738   0.000353   0.003789  -0.007105   0.434344  -0.014848
    18  H   -0.000816   0.001589  -0.009129   0.000979  -0.014848   0.471725
    19  H    0.001689   0.000296  -0.005736  -0.002468  -0.000805  -0.004687
    20  H   -0.001983   0.001472   0.001576  -0.000935  -0.000406  -0.000973
    21  H   -0.000079  -0.001134  -0.002343   0.003511   0.000207   0.003463
    22  H    0.000508   0.000153   0.000910  -0.000936  -0.003647   0.000790
    23  H    0.000277  -0.000692  -0.003242   0.002303   0.002220  -0.004674
    24  H   -0.000315   0.000401   0.004164  -0.002867  -0.007865   0.013626
    25  H    0.000007   0.000012  -0.000133   0.000018  -0.000409   0.002861
    26  H    0.003272  -0.010161   0.000048  -0.002593  -0.000285  -0.000381
    27  H   -0.001500  -0.004610  -0.000490   0.001319   0.001559  -0.001055
    28  H   -0.000698   0.001770   0.001188  -0.002279  -0.000497  -0.002906
    29  H   -0.006150  -0.000091  -0.000654   0.001914  -0.002419   0.000909
              19         20         21         22         23         24
     1  C    0.000167   0.022563  -0.021964   0.011919  -0.007740   0.008905
     2  C    0.017325   0.008205   0.001065  -0.003616   0.002210  -0.002182
     3  C   -0.033612   0.019115  -0.026956  -0.007410  -0.008253   0.004621
     4  C    0.031633  -0.009611  -0.015185   0.016772   0.011059  -0.035865
     5  N   -0.025516  -0.002982  -0.018271   0.008751  -0.035849   0.033628
     6  C    0.368162   0.442267   0.041256  -0.051656   0.023211  -0.022481
     7  C   -0.014071  -0.013711   0.303291   0.426670  -0.140256   0.055609
     8  C    0.025759  -0.022707   0.099364  -0.076859   0.511233   0.270274
     9  O    0.000610   0.003550   0.008276   0.003175  -0.073654  -0.041620
    10  C   -0.023502  -0.082263  -0.004836  -0.012722  -0.002857  -0.010704
    11  C   -0.008454  -0.003678  -0.056533   0.008206  -0.020881   0.032656
    12  H   -0.000650   0.001070   0.002036  -0.000656   0.000048   0.000201
    13  H    0.001689  -0.001983  -0.000079   0.000508   0.000277  -0.000315
    14  H    0.000296   0.001472  -0.001134   0.000153  -0.000692   0.000401
    15  H   -0.005736   0.001576  -0.002343   0.000910  -0.003242   0.004164
    16  H   -0.002468  -0.000935   0.003511  -0.000936   0.002303  -0.002867
    17  H   -0.000805  -0.000406   0.000207  -0.003647   0.002220  -0.007865
    18  H   -0.004687  -0.000973   0.003463   0.000790  -0.004674   0.013626
    19  H    0.467863  -0.012269  -0.003243   0.005612  -0.004686  -0.001625
    20  H   -0.012269   0.428582  -0.006419  -0.001735  -0.016582   0.007511
    21  H   -0.003243  -0.006419   0.508468  -0.046286   0.037555  -0.038247
    22  H    0.005612  -0.001735  -0.046286   0.489306  -0.034090   0.023808
    23  H   -0.004686  -0.016582   0.037555  -0.034090   0.684549  -0.112578
    24  H   -0.001625   0.007511  -0.038247   0.023808  -0.112578   0.668879
    25  H    0.001827  -0.000654   0.004057  -0.000189   0.003899  -0.020881
    26  H    0.008610  -0.005043  -0.001576   0.003507  -0.003511   0.002040
    27  H   -0.010053  -0.004486   0.002587  -0.002618   0.007213  -0.004388
    28  H    0.000525  -0.000694  -0.006200   0.002280  -0.001904   0.001041
    29  H   -0.003384  -0.000175   0.004421  -0.000422   0.001317  -0.000641
              25         26         27         28         29
     1  C    0.000216  -0.031102  -0.016897  -0.048658  -0.050210
     2  C    0.000485  -0.049940  -0.043872   0.005159   0.016158
     3  C   -0.000621  -0.013749  -0.032742   0.017512   0.000642
     4  C    0.001422   0.024366   0.018912  -0.027870  -0.002171
     5  N   -0.000757   0.029815  -0.004651  -0.019570  -0.014808
     6  C    0.006437  -0.131901  -0.072738  -0.004002   0.004633
     7  C   -0.109182  -0.007312   0.000674   0.010684  -0.007027
     8  C    0.148223  -0.002610   0.006250  -0.020869   0.003622
     9  O    0.219649   0.000109  -0.000200   0.000500   0.000905
    10  C   -0.000274   0.486748   0.485569   0.003725  -0.015246
    11  C   -0.006419   0.014639   0.012208   0.439908   0.404143
    12  H    0.000020  -0.001271  -0.001106  -0.009283   0.004597
    13  H    0.000007   0.003272  -0.001500  -0.000698  -0.006150
    14  H    0.000012  -0.010161  -0.004610   0.001770  -0.000091
    15  H   -0.000133   0.000048  -0.000490   0.001188  -0.000654
    16  H    0.000018  -0.002593   0.001319  -0.002279   0.001914
    17  H   -0.000409  -0.000285   0.001559  -0.000497  -0.002419
    18  H    0.002861  -0.000381  -0.001055  -0.002906   0.000909
    19  H    0.001827   0.008610  -0.010053   0.000525  -0.003384
    20  H   -0.000654  -0.005043  -0.004486  -0.000694  -0.000175
    21  H    0.004057  -0.001576   0.002587  -0.006200   0.004421
    22  H   -0.000189   0.003507  -0.002618   0.002280  -0.000422
    23  H    0.003899  -0.003511   0.007213  -0.001904   0.001317
    24  H   -0.020881   0.002040  -0.004388   0.001041  -0.000641
    25  H    0.476306  -0.000023   0.000008  -0.000220  -0.000035
    26  H   -0.000023   0.493421  -0.001721   0.000394  -0.006417
    27  H    0.000008  -0.001721   0.463666  -0.000776  -0.000478
    28  H   -0.000220   0.000394  -0.000776   0.433341  -0.009029
    29  H   -0.000035  -0.006417  -0.000478  -0.009029   0.437540
 Mulliken charges:
               1
     1  C   -0.622598
     2  C    0.318626
     3  C   -0.638397
     4  C   -0.169232
     5  N   -0.096326
     6  C   -0.179971
     7  C   -0.161316
     8  C   -0.315714
     9  O   -0.252662
    10  C   -0.662856
    11  C   -0.237719
    12  H    0.196875
    13  H    0.208674
    14  H    0.294390
    15  H    0.200967
    16  H    0.209105
    17  H    0.256600
    18  H    0.188658
    19  H    0.224682
    20  H    0.251394
    21  H    0.229716
    22  H    0.240476
    23  H    0.184354
    24  H    0.174895
    25  H    0.274351
    26  H    0.202627
    27  H    0.204414
    28  H    0.237429
    29  H    0.238558
 Sum of Mulliken charges =   1.00000
 Mulliken charges with hydrogens summed into heavy atoms:
               1
     1  C   -0.217049
     2  C    0.613017
     3  C   -0.228324
     4  C    0.276025
     5  N   -0.096326
     6  C    0.296105
     7  C    0.308875
     8  C    0.043534
     9  O    0.021690
    10  C   -0.255815
    11  C    0.238268
 Electronic spatial extent (au):  <R**2>=           1934.5316
 Charge=              1.0000 electrons
 Dipole moment (field-independent basis, Debye):
    X=              0.8875    Y=             -0.8915    Z=              0.1927  Tot=              1.2727
 Quadrupole moment (field-independent basis, Debye-Ang):
   XX=            -51.5980   YY=            -58.3493   ZZ=            -59.5667
   XY=              7.4018   XZ=             -1.1328   YZ=             -0.2816
 Traceless Quadrupole moment (field-independent basis, Debye-Ang):
   XX=              4.9066   YY=             -1.8446   ZZ=             -3.0620
   XY=              7.4018   XZ=             -1.1328   YZ=             -0.2816
 Octapole moment (field-independent basis, Debye-Ang**2):
  XXX=            -32.2626  YYY=              3.1133  ZZZ=              0.5000  XYY=             -4.2638
  XXY=            -33.4487  XXZ=              6.1538  XZZ=              0.0712  YZZ=              0.3800
  YYZ=             -0.2584  XYZ=              1.1116
 Hexadecapole moment (field-independent basis, Debye-Ang**3):
 XXXX=          -1384.5860 YYYY=           -389.0324 ZZZZ=           -357.8200 XXXY=            153.0388
 XXXZ=            -32.4681 YYYX=              5.3627 YYYZ=              0.8741 ZZZX=              2.0826
 ZZZY=             -0.5709 XXYY=           -319.3617 XXZZ=           -335.0998 YYZZ=           -122.8554
 XXYZ=             -6.4736 YYXZ=             -2.9711 ZZXY=              2.9232
 N-N= 7.036604361664D+02 E-N=-2.516520426104D+03  KE= 4.809440967706D+02

 **********************************************************************

            Electrostatic Properties Using The SCF Density

 **********************************************************************

       Atomic Center    1 is at   2.189897  1.189561  0.060135
       Atomic Center    2 is at   2.368489 -0.330241  0.007449
       Atomic Center    3 is at   1.664111 -0.939524  1.224216
       Atomic Center    4 is at   0.196963 -0.482185  1.277097
       Atomic Center    5 is at  -0.136932  0.270385 -0.003556
       Atomic Center    6 is at   0.179022 -0.605660 -1.207140
       Atomic Center    7 is at  -1.605329  0.695177 -0.019808
       Atomic Center    8 is at  -2.605316 -0.464947 -0.039446
       Atomic Center    9 is at  -3.911146  0.080430  0.020173
       Atomic Center   10 is at   1.695255 -0.851983 -1.266602
       Atomic Center   11 is at   0.701009  1.543934 -0.068958
       Atomic Center   12 is at   2.605921  1.578628  1.019674
       Atomic Center   13 is at   2.776218  1.673744 -0.756352
       Atomic Center   14 is at   3.454166 -0.594951  0.011636
       Atomic Center   15 is at   1.728176 -2.052127  1.163715
       Atomic Center   16 is at   2.193577 -0.644834  2.161091
       Atomic Center   17 is at   0.020340  0.173741  2.161565
       Atomic Center   18 is at  -0.447623 -1.380842  1.403927
       Atomic Center   19 is at  -0.350377 -1.583020 -1.125544
       Atomic Center   20 is at  -0.164725 -0.119132 -2.150003
       Atomic Center   21 is at  -1.816989  1.329153  0.874317
       Atomic Center   22 is at  -1.802730  1.329073 -0.917537
       Atomic Center   23 is at  -2.552683 -1.067797 -0.971999
       Atomic Center   24 is at  -2.512143 -1.136233  0.840673
       Atomic Center   25 is at  -4.564465 -0.605154  0.176267
       Atomic Center   26 is at   2.139881 -0.343004 -2.154554
       Atomic Center   27 is at   1.906317 -1.940695 -1.390311
       Atomic Center   28 is at   0.415408  2.248077  0.747896
       Atomic Center   29 is at   0.514816  2.074443 -1.032613
 -----------------------------------------------------------------

              Electrostatic Properties (Atomic Units)

 -----------------------------------------------------------------
    Center     Electric         -------- Electric Field --------
               Potential          X             Y             Z
 -----------------------------------------------------------------
    1 Atom    -14.616588      0.006148      0.000731      0.000438
    2 Atom    -14.609715      0.005286     -0.001110      0.000056
    3 Atom    -14.615168      0.005506     -0.002590      0.001586
    4 Atom    -14.556321      0.004580     -0.006976      0.011310
    5 Atom    -18.104883     -0.005616      0.001891     -0.000035
    6 Atom    -14.556034      0.004441     -0.008031     -0.010653
    7 Atom    -14.558913     -0.013005      0.003861      0.000143
    8 Atom    -14.565717      0.004936     -0.008806     -0.000478
    9 Atom    -22.235009     -0.011250      0.048680     -0.005400
   10 Atom    -14.615373      0.005601     -0.001945     -0.002017
   11 Atom    -14.557302      0.008789      0.010895     -0.000478
   12 Atom     -0.973455      0.001066      0.002031      0.002332
   13 Atom     -0.971390      0.000906      0.002009     -0.001870
   14 Atom     -0.974110      0.000655     -0.000396      0.000007
   15 Atom     -0.972405     -0.000565     -0.003139      0.001091
   16 Atom     -0.970179      0.000781      0.000404      0.002623
   17 Atom     -0.932529     -0.004187      0.006601     -0.003160
   18 Atom     -0.932361     -0.007361      0.002733     -0.005698
   19 Atom     -0.932616     -0.005704      0.002239      0.005768
   20 Atom     -0.931750     -0.005959      0.005811      0.003003
   21 Atom     -0.936312      0.003578      0.000490      0.003049
   22 Atom     -0.935767      0.004972      0.001397     -0.002694
   23 Atom     -0.971196      0.008426     -0.004964     -0.005679
   24 Atom     -0.966917      0.010043     -0.006048      0.004539
   25 Atom     -0.867524     -0.018519     -0.020485      0.004045
   26 Atom     -0.972404      0.001074      0.000765     -0.002975
   27 Atom     -0.970457     -0.000468     -0.002635     -0.001134
   28 Atom     -0.933426     -0.008755     -0.003654      0.002148
   29 Atom     -0.933724     -0.007330     -0.004300     -0.002905
 -----------------------------------------------------------------
 -----------------------------------------------------
    Center         ---- Electric Field Gradient ----
                     XX            YY            ZZ
 -----------------------------------------------------
    1 Atom     -500.412018   -500.279604   -500.211842
    2 Atom     -500.180696   -500.260165   -500.270492
    3 Atom     -500.406840   -500.243984   -500.249108
    4 Atom     -500.314404   -500.418726   -500.757316
    5 Atom     -812.852942   -812.843051   -812.839787
    6 Atom     -500.316319   -500.493219   -500.696599
    7 Atom     -500.943509   -500.452333   -500.318026
    8 Atom     -500.618769   -500.296454   -500.109850
    9 Atom    -1238.314259  -1236.460687  -1234.540951
   10 Atom     -500.420935   -500.223849   -500.256934
   11 Atom     -500.498025   -500.787893   -500.294187
   12 Atom       -1.722277     -1.714047     -1.956386
   13 Atom       -1.768010     -1.732248     -1.870955
   14 Atom       -2.020158     -1.683209     -1.662008
   15 Atom       -1.674477     -2.052031     -1.667245
   16 Atom       -1.749660     -1.686570     -1.932696
   17 Atom       -1.661541     -1.801965     -1.894389
   18 Atom       -1.798348     -1.909640     -1.673324
   19 Atom       -1.751191     -1.953807     -1.674171
   20 Atom       -1.689293     -1.738992     -1.924547
   21 Atom       -1.667951     -1.761518     -1.892072
   22 Atom       -1.667551     -1.762552     -1.893759
   23 Atom       -1.712293     -1.812295     -1.972042
   24 Atom       -1.720162     -1.842346     -1.944782
   25 Atom       -1.871076     -1.894291     -1.505163
   26 Atom       -1.731271     -1.748697     -1.910597
   27 Atom       -1.679063     -2.030865     -1.661950
   28 Atom       -1.687189     -1.802946     -1.862157
   29 Atom       -1.671868     -1.741054     -1.944670
 -----------------------------------------------------
 -----------------------------------------------------
    Center         ---- Electric Field Gradient ----
                     XY            XZ            YZ
 -----------------------------------------------------
    1 Atom        0.038654     -0.019007      0.000573
    2 Atom       -0.022162      0.000067     -0.000291
    3 Atom        0.057603      0.019023      0.021783
    4 Atom        0.079065     -0.115818      0.272025
    5 Atom        0.017764     -0.005134      0.000545
    6 Atom        0.076345      0.101530     -0.305339
    7 Atom        0.182124     -0.009899     -0.000384
    8 Atom        0.125966      0.015354     -0.005668
    9 Atom       -0.161189      0.402255      0.251099
   10 Atom        0.030110     -0.001831     -0.022547
   11 Atom       -0.297881      0.014331      0.032019
   12 Atom       -0.045356     -0.121495     -0.116807
   13 Atom       -0.083658      0.147304      0.125445
   14 Atom        0.087544     -0.001384      0.000321
   15 Atom        0.018055      0.002836     -0.023320
   16 Atom       -0.047912     -0.151035     -0.090354
   17 Atom        0.042606      0.044278     -0.174053
   18 Atom       -0.183266      0.013546      0.033962
   19 Atom       -0.160736      0.024550      0.025338
   20 Atom        0.060752     -0.097439      0.138409
   21 Atom        0.035747      0.047257     -0.174712
   22 Atom        0.032493     -0.043446      0.175263
   23 Atom        0.014373      0.024257     -0.181247
   24 Atom        0.025379     -0.034010      0.192990
   25 Atom       -0.331634      0.082373      0.088163
   26 Atom       -0.069720      0.118605      0.143853
   27 Atom        0.067592      0.006296     -0.039953
   28 Atom        0.054748      0.081739     -0.172701
   29 Atom        0.021408     -0.063483      0.151205
 -----------------------------------------------------
 -----------------------------------------------------
    Center         ---- Electric Field Gradient ----
                   ----       Eigenvalues       ----
 -----------------------------------------------------
    1 Atom     -500.424089   -500.269471   -500.209904
    2 Atom     -500.270507   -500.265912   -500.174933
    3 Atom     -500.425922   -500.265802   -500.208208
    4 Atom     -500.939624   -500.290203   -500.260619
    5 Atom     -812.867154   -812.839755   -812.828870
    6 Atom     -500.942497   -500.290910   -500.272731
    7 Atom     -501.003796   -500.392334   -500.317739
    8 Atom     -500.662642   -500.253066   -500.109365
    9 Atom    -1238.374993  -1236.469727  -1234.471177
   10 Atom     -500.425447   -500.267499   -500.208772
   11 Atom     -500.975999   -500.312830   -500.291276
   12 Atom       -2.054164     -1.673227     -1.665319
   13 Atom       -2.047571     -1.666103     -1.657538
   14 Atom       -2.041552     -1.662004     -1.661819
   15 Atom       -2.054311     -1.673978     -1.665464
   16 Atom       -2.046795     -1.665379     -1.656753
   17 Atom       -2.038167     -1.670467     -1.649261
   18 Atom       -2.048852     -1.676269     -1.656192
   19 Atom       -2.045620     -1.676933     -1.656615
   20 Atom       -2.036245     -1.668322     -1.648265
   21 Atom       -2.023172     -1.658401     -1.639969
   22 Atom       -2.023552     -1.659493     -1.640817
   23 Atom       -2.092323     -1.710295     -1.694012
   24 Atom       -2.097999     -1.715415     -1.693875
   25 Atom       -2.234477     -1.550904     -1.485149
   26 Atom       -2.053460     -1.672534     -1.664571
   27 Atom       -2.047643     -1.666657     -1.657578
   28 Atom       -2.035265     -1.669013     -1.648014
   29 Atom       -2.037119     -1.670995     -1.649477
 -----------------------------------------------------
 -----------------------------------------------------
    Center         ---- Electric Field Gradient ----
                       ( tensor representation )
                   3XX-RR        3YY-RR        3ZZ-RR
 -----------------------------------------------------
    1 Atom       -0.110864      0.021551      0.089313
    2 Atom        0.056422     -0.023047     -0.033374
    3 Atom       -0.106863      0.055993      0.050869
    4 Atom        0.182411      0.078090     -0.260501
    5 Atom       -0.007682      0.002209      0.005473
    6 Atom        0.185726      0.008827     -0.194553
    7 Atom       -0.372220      0.118956      0.253264
    8 Atom       -0.277078      0.045237      0.231841
    9 Atom       -1.875627     -0.022055      1.897682
   10 Atom       -0.120363      0.076724      0.043639
   11 Atom        0.028676     -0.261191      0.232515
   12 Atom        0.075293      0.083523     -0.158816
   13 Atom        0.022394      0.058156     -0.080551
   14 Atom       -0.231700      0.105250      0.126450
   15 Atom        0.123441     -0.254113      0.130673
   16 Atom        0.039982      0.103072     -0.143054
   17 Atom        0.124424     -0.016000     -0.108424
   18 Atom       -0.004578     -0.115869      0.120447
   19 Atom        0.041866     -0.160751      0.118885
   20 Atom        0.094984      0.045286     -0.140270
   21 Atom        0.105896      0.012329     -0.118225
   22 Atom        0.107070      0.012069     -0.119139
   23 Atom        0.119917      0.019915     -0.139832
   24 Atom        0.115601     -0.006582     -0.109019
   25 Atom       -0.114233     -0.137448      0.251680
   26 Atom        0.065584      0.048158     -0.113742
   27 Atom        0.111563     -0.240239      0.128676
   28 Atom        0.096908     -0.018849     -0.078060
   29 Atom        0.113996      0.044810     -0.158806
 -----------------------------------------------------
 -----------------------------------------------------
    Center         ---- Electric Field Gradient ----
                       ( tensor representation )
                   ----       Eigenvalues       ----
 -----------------------------------------------------
    1 Atom       -0.122934      0.031684      0.091251
    2 Atom       -0.033390     -0.028795      0.062184
    3 Atom       -0.125945      0.034175      0.091770
    4 Atom       -0.442809      0.206612      0.236197
    5 Atom       -0.021894      0.005505      0.016390
    6 Atom       -0.440451      0.211136      0.229315
    7 Atom       -0.432506      0.178955      0.253551
    8 Atom       -0.320951      0.088625      0.232326
    9 Atom       -1.936361     -0.031095      1.967455
   10 Atom       -0.124874      0.033073      0.091801
   11 Atom       -0.449297      0.213871      0.235426
   12 Atom       -0.256594      0.124343      0.132251
   13 Atom       -0.257167      0.124301      0.132866
   14 Atom       -0.253093      0.126454      0.126639
   15 Atom       -0.256393      0.123940      0.132453
   16 Atom       -0.257153      0.124264      0.132889
   17 Atom       -0.252202      0.115498      0.136704
   18 Atom       -0.255081      0.117502      0.137579
   19 Atom       -0.252564      0.116123      0.136441
   20 Atom       -0.251967      0.115955      0.136012
   21 Atom       -0.249324      0.115446      0.133878
   22 Atom       -0.248931      0.115127      0.133804
   23 Atom       -0.260113      0.121915      0.138198
   24 Atom       -0.262236      0.120348      0.141888
   25 Atom       -0.477633      0.205939      0.271694
   26 Atom       -0.256605      0.124321      0.132284
   27 Atom       -0.257017      0.123969      0.133047
   28 Atom       -0.251168      0.115085      0.136083
   29 Atom       -0.251255      0.114868      0.136386
 -----------------------------------------------------
 Calling FoFJK, ICntrl=      2127 FMM=F ISym2X=0 I1Cent= 0 IOpClX= 0 NMat=1 NMatS=1 NMatT=0.
 ***** Axes restored to original set *****
 -------------------------------------------------------------------
 Center     Atomic                   Forces (Hartrees/Bohr)
 Number     Number              X              Y              Z
 -------------------------------------------------------------------
      1        6           0.019465743    0.012645219   -0.008464851
      2        6           0.009124483    0.000253808   -0.008759814
      3        6           0.018876363   -0.014100192   -0.009023121
      4        6           0.011574303   -0.015754726    0.008010577
      5        7          -0.020070623    0.004897587    0.022277210
      6        6          -0.012051139   -0.005954184   -0.015968579
      7        6          -0.010866942    0.006710603    0.015324339
      8        6          -0.012986896   -0.025646930    0.001858133
      9        8           0.003877478    0.019374369    0.005029244
     10        6           0.002447329    0.000225090   -0.025172399
     11        6           0.007070369    0.020251081    0.001435487
     12        1          -0.012702959   -0.000358092   -0.005739880
     13        1           0.000023582   -0.010190929    0.010218206
     14        1          -0.011436910    0.000460738    0.011788717
     15        1           0.001263394    0.011657914    0.007702321
     16        1          -0.013814593   -0.000613960   -0.004144527
     17        1          -0.012879264    0.002885629   -0.011634832
     18        1          -0.001744602    0.018967881   -0.000525754
     19        1           0.007040673    0.014848428    0.008449522
     20        1           0.011332712   -0.007837994    0.011618518
     21        1          -0.002778207   -0.003666188   -0.015427829
     22        1           0.012703287   -0.010236142   -0.001604979
     23        1           0.012737031    0.002232589    0.001711765
     24        1           0.001594604    0.008758839   -0.010594202
     25        1           0.000067865   -0.002671293   -0.001688938
     26        1           0.001888514   -0.010986049    0.008330674
     27        1          -0.000797220    0.011635901    0.008673370
     28        1          -0.011995071   -0.010870983   -0.009596702
     29        1           0.003036695   -0.016918013    0.005918324
 -------------------------------------------------------------------
 Cartesian Forces:  Max     0.025646930 RMS     0.010914262

 GradGradGradGradGradGradGradGradGradGradGradGradGradGradGradGradGradGrad
 Berny optimization.
 FormGI is forming the generalized inverse of G from B-inverse, IUseBI=4.
 Internal  Forces:  Max     0.023184237 RMS     0.005618670
 Search for a local minimum.
 Step number   1 out of a maximum of  174
 All quantities printed in internal units (Hartrees-Bohrs-Radians)
 Mixed Optimization -- RFO/linear search
 Second derivative matrix not updated -- first step.
 ITU=  0
     Eigenvalues ---    0.00230   0.00290   0.00346   0.00560   0.00568
     Eigenvalues ---    0.01475   0.01914   0.01920   0.02174   0.03191
     Eigenvalues ---    0.03225   0.03304   0.03667   0.04184   0.04305
     Eigenvalues ---    0.04549   0.04738   0.04753   0.04786   0.04824
     Eigenvalues ---    0.05109   0.05249   0.05253   0.05295   0.05341
     Eigenvalues ---    0.05348   0.06841   0.07329   0.07680   0.07696
     Eigenvalues ---    0.07722   0.07771   0.07795   0.07874   0.07938
     Eigenvalues ---    0.07948   0.08606   0.08617   0.08653   0.08664
     Eigenvalues ---    0.10571   0.11632   0.12412   0.12422   0.12463
     Eigenvalues ---    0.13656   0.16000   0.17785   0.17809   0.21960
     Eigenvalues ---    0.21982   0.24852   0.24941   0.26609   0.27390
     Eigenvalues ---    0.27429   0.28748   0.29263   0.29478   0.29544
     Eigenvalues ---    0.29595   0.29690   0.31820   0.31915   0.31939
     Eigenvalues ---    0.31964   0.31984   0.31986   0.31987   0.31998
     Eigenvalues ---    0.32001   0.32006   0.32011   0.32047   0.32053
     Eigenvalues ---    0.32126   0.32266   0.32422   0.32514   0.43008
     Eigenvalues ---    0.55516
 RFO step:  Lambda=-2.59358846D-02 EMin= 2.30000000D-03
 Linear search not attempted -- first point.
 Maximum step size (   0.300) exceeded in Quadratic search.
    -- Step size scaled by   0.958
 Iteration  1 RMS(Cart)=  0.04677416 RMS(Int)=  0.00169536
 Iteration  2 RMS(Cart)=  0.00190092 RMS(Int)=  0.00080154
 Iteration  3 RMS(Cart)=  0.00000145 RMS(Int)=  0.00080154
 Iteration  4 RMS(Cart)=  0.00000000 RMS(Int)=  0.00080154
 Variable       Old X    -DE/DX   Delta X   Delta X   Delta X     New X
                                 (Linear)    (Quad)   (Total)
    R1        2.89348   0.00310   0.00000   0.00742   0.00761   2.90109
    R2        2.90246   0.00653   0.00000   0.01937   0.01939   2.92185
    R3        2.10869  -0.01391   0.00000  -0.03854  -0.03854   2.07015
    R4        2.10843  -0.01438   0.00000  -0.03983  -0.03983   2.06860
    R5        2.89560   0.00290   0.00000   0.00723   0.00736   2.90296
    R6        2.89607   0.00282   0.00000   0.00700   0.00711   2.90318
    R7        2.11175  -0.01643   0.00000  -0.04575  -0.04575   2.06600
    R8        2.90580   0.00710   0.00000   0.02181   0.02179   2.92759
    R9        2.10910  -0.01395   0.00000  -0.03868  -0.03868   2.07042
   R10        2.10847  -0.01441   0.00000  -0.03992  -0.03992   2.06855
   R11        2.87705  -0.00582   0.00000  -0.01549  -0.01563   2.86143
   R12        2.10746  -0.01537   0.00000  -0.04252  -0.04252   2.06495
   R13        2.10360  -0.01610   0.00000  -0.04426  -0.04426   2.05934
   R14        2.87580  -0.00502   0.00000  -0.01292  -0.01303   2.86277
   R15        2.88881  -0.00731   0.00000  -0.02181  -0.02181   2.86701
   R16        2.88352  -0.00582   0.00000  -0.01568  -0.01585   2.86767
   R17        2.90500   0.00688   0.00000   0.02144   0.02142   2.92642
   R18        2.10614  -0.01625   0.00000  -0.04486  -0.04486   2.06128
   R19        2.10758  -0.01562   0.00000  -0.04320  -0.04320   2.06438
   R20        2.89458  -0.00517   0.00000  -0.01554  -0.01554   2.87904
   R21        2.10955  -0.01537   0.00000  -0.04266  -0.04266   2.06689
   R22        2.11000  -0.01526   0.00000  -0.04238  -0.04238   2.06761
   R23        2.67660   0.00304   0.00000   0.00639   0.00639   2.68299
   R24        2.10079  -0.00922   0.00000  -0.02524  -0.02524   2.07555
   R25        2.09914  -0.00883   0.00000  -0.02410  -0.02410   2.07504
   R26        1.81376   0.00174   0.00000   0.00286   0.00286   1.81662
   R27        2.10873  -0.01390   0.00000  -0.03852  -0.03852   2.07020
   R28        2.10867  -0.01445   0.00000  -0.04005  -0.04005   2.06862
   R29        2.10824  -0.01591   0.00000  -0.04406  -0.04406   2.06418
   R30        2.10833  -0.01566   0.00000  -0.04337  -0.04337   2.06496
    A1        1.91685  -0.00342   0.00000  -0.01308  -0.01315   1.90370
    A2        1.90941   0.00178   0.00000   0.01041   0.01042   1.91984
    A3        1.92225   0.00161   0.00000   0.00799   0.00791   1.93017
    A4        1.93183   0.00018   0.00000  -0.00124  -0.00122   1.93061
    A5        1.92600   0.00054   0.00000  -0.00423  -0.00413   1.92187
    A6        1.85672  -0.00054   0.00000   0.00090   0.00082   1.85754
    A7        1.88992   0.00020   0.00000   0.00179   0.00179   1.89171
    A8        1.89155   0.00012   0.00000   0.00085   0.00085   1.89240
    A9        1.92656   0.00008   0.00000   0.00058   0.00059   1.92715
   A10        1.89953  -0.00002   0.00000   0.00079   0.00079   1.90031
   A11        1.92777  -0.00015   0.00000  -0.00187  -0.00187   1.92590
   A12        1.92758  -0.00021   0.00000  -0.00202  -0.00202   1.92556
   A13        1.92586  -0.00318   0.00000  -0.01200  -0.01211   1.91375
   A14        1.90388   0.00204   0.00000   0.01367   0.01372   1.91760
   A15        1.92156   0.00131   0.00000   0.00506   0.00498   1.92654
   A16        1.93170  -0.00007   0.00000  -0.00345  -0.00341   1.92830
   A17        1.92340   0.00058   0.00000  -0.00308  -0.00299   1.92041
   A18        1.85623  -0.00052   0.00000   0.00056   0.00047   1.85670
   A19        1.90428   0.00411   0.00000   0.02123   0.02149   1.92577
   A20        1.93191   0.00287   0.00000   0.03207   0.03216   1.96407
[...]
     6  C    0.003918  -0.110416  -0.063178   0.000326  -0.002471
     7  C   -0.147485  -0.007339   0.007851   0.010973  -0.002708
     8  C    0.190924   0.005993  -0.006674  -0.012989  -0.019835
     9  O    0.198201   0.000009  -0.000032   0.001727   0.000758
    10  C   -0.000684   0.477071   0.476066   0.008167  -0.011028
    11  C   -0.005988   0.018467   0.005073   0.447439   0.403308
    12  H    0.000020  -0.001293  -0.001265  -0.009626   0.006144
    13  H    0.000011   0.002846  -0.002282   0.000809  -0.010723
    14  H    0.000008  -0.011114  -0.001593   0.000734  -0.000105
    15  H   -0.000060  -0.000946   0.002090   0.001063   0.000040
    16  H    0.000001  -0.001243  -0.001525  -0.000664   0.001984
    17  H   -0.000573   0.000199   0.001768  -0.000718  -0.002365
    18  H    0.001428   0.000137  -0.000448  -0.002425  -0.000217
    19  H    0.003221   0.009434  -0.014666  -0.001348  -0.004580
    20  H   -0.000671  -0.008235  -0.001723   0.000467  -0.002502
    21  H    0.000941  -0.000899   0.002067   0.000117   0.003937
    22  H    0.004109   0.003410  -0.003162  -0.005556  -0.001812
    23  H   -0.013656  -0.001952   0.005873   0.000778   0.002827
    24  H   -0.003669   0.001393  -0.004453  -0.001051  -0.001631
    25  H    0.490520   0.000000  -0.000059  -0.000235  -0.000236
    26  H    0.000000   0.493797  -0.001046  -0.000582  -0.010201
    27  H   -0.000059  -0.001046   0.452793   0.000150  -0.000856
    28  H   -0.000235  -0.000582   0.000150   0.446512  -0.014754
    29  H   -0.000236  -0.010201  -0.000856  -0.014754   0.454106
 Mulliken charges:
               1
     1  C   -0.649627
     2  C    0.379793
     3  C   -0.633837
     4  C   -0.128065
     5  N   -0.196124
     6  C   -0.108643
     7  C   -0.250843
     8  C   -0.221368
     9  O   -0.236428
    10  C   -0.729093
    11  C   -0.172742
    12  H    0.195409
    13  H    0.214137
    14  H    0.296229
    15  H    0.198219
    16  H    0.214296
    17  H    0.240316
    18  H    0.162515
    19  H    0.229328
    20  H    0.234777
    21  H    0.244000
    22  H    0.224628
    23  H    0.178817
    24  H    0.182490
    25  H    0.276393
    26  H    0.200156
    27  H    0.206215
    28  H    0.220381
    29  H    0.228669
 Sum of Mulliken charges =   1.00000
 Mulliken charges with hydrogens summed into heavy atoms:
               1
     1  C   -0.240081
     2  C    0.676022
     3  C   -0.221321
     4  C    0.274766
     5  N   -0.196124
     6  C    0.355462
     7  C    0.217786
     8  C    0.139939
     9  O    0.039966
    10  C   -0.322722
    11  C    0.276308
 Electronic spatial extent (au):  <R**2>=           1919.1201
 Charge=              1.0000 electrons
 Dipole moment (field-independent basis, Debye):
    X=              0.6679    Y=             -0.9865    Z=             -0.2992  Tot=              1.2283
 Quadrupole moment (field-independent basis, Debye-Ang):
   XX=            -48.9198   YY=            -58.9284   ZZ=            -59.9004
   XY=              7.0802   XZ=              1.0235   YZ=             -0.0204
 Traceless Quadrupole moment (field-independent basis, Debye-Ang):
   XX=              6.9964   YY=             -3.0122   ZZ=             -3.9842
   XY=              7.0802   XZ=              1.0235   YZ=             -0.0204
 Octapole moment (field-independent basis, Debye-Ang**2):
  XXX=            -43.3049  YYY=              2.3719  ZZZ=              0.3327  XYY=             -2.5669
  XXY=            -31.3754  XXZ=             -3.6366  XZZ=              1.1183  YZZ=              0.5006
  YYZ=             -0.5611  XYZ=             -0.0927
 Hexadecapole moment (field-independent basis, Debye-Ang**3):
 XXXX=          -1303.0277 YYYY=           -385.2763 ZZZZ=           -355.3060 XXXY=            140.4228
 XXXZ=             12.3252 YYYX=              1.9873 YYYZ=              1.6472 ZZZX=              4.0282
 ZZZY=             -0.6377 XXYY=           -321.6150 XXZZ=           -332.3449 YYZZ=           -122.1394
 XXYZ=             -1.3597 YYXZ=             -3.1144 ZZXY=              2.3274
 N-N= 7.067466034134D+02 E-N=-2.523032221372D+03  KE= 4.814414612799D+02

 **********************************************************************

            Electrostatic Properties Using The SCF Density

 **********************************************************************

       Atomic Center    1 is at   2.162514  1.228738 -0.038849
       Atomic Center    2 is at   2.380311 -0.291690  0.036166
       Atomic Center    3 is at   1.688745 -0.823450  1.302932
       Atomic Center    4 is at   0.237987 -0.297463  1.343144
       Atomic Center    5 is at  -0.158410  0.246190 -0.025481
       Atomic Center    6 is at   0.191736 -0.786453 -1.089741
       Atomic Center    7 is at  -1.621234  0.624271 -0.068644
       Atomic Center    8 is at  -2.629369 -0.527609 -0.043244
       Atomic Center    9 is at  -3.870651  0.140504  0.080470
       Atomic Center   10 is at   1.724919 -0.940724 -1.194691
       Atomic Center   11 is at   0.666080  1.505087 -0.289495
       Atomic Center   12 is at   2.489551  1.705351  0.887779
       Atomic Center   13 is at   2.749200  1.666174 -0.848489
       Atomic Center   14 is at   3.445608 -0.521504  0.061919
       Atomic Center   15 is at   1.699344 -1.915713  1.309877
       Atomic Center   16 is at   2.214456 -0.493114  2.200431
       Atomic Center   17 is at   0.113697  0.532221  2.039899
       Atomic Center   18 is at  -0.476507 -1.073658  1.608189
       Atomic Center   19 is at  -0.291426 -1.715543 -0.789253
       Atomic Center   20 is at  -0.262259 -0.448208 -2.021344
       Atomic Center   21 is at  -1.809066  1.270774  0.789826
       Atomic Center   22 is at  -1.773246  1.211806 -0.975048
       Atomic Center   23 is at  -2.581796 -1.115294 -0.967007
       Atomic Center   24 is at  -2.453039 -1.199825  0.805535
       Atomic Center   25 is at  -4.595458 -0.490349  0.015448
       Atomic Center   26 is at   2.093154 -0.472137 -2.109966
       Atomic Center   27 is at   1.974834 -2.001337 -1.255105
       Atomic Center   28 is at   0.266373  2.283920  0.359600
       Atomic Center   29 is at   0.460518  1.784838 -1.323155
 -----------------------------------------------------------------

              Electrostatic Properties (Atomic Units)

 -----------------------------------------------------------------
    Center     Electric         -------- Electric Field --------
               Potential          X             Y             Z
 -----------------------------------------------------------------
    1 Atom    -14.618684      0.002795     -0.001286      0.000181
    2 Atom    -14.610542      0.002979     -0.000594      0.000113
    3 Atom    -14.617940      0.003023     -0.000251     -0.000607
    4 Atom    -14.564670      0.005193     -0.004169      0.008459
    5 Atom    -18.116321     -0.001768      0.000365      0.000126
    6 Atom    -14.563066      0.005056     -0.006444     -0.006920
    7 Atom    -14.568676     -0.010726      0.001199     -0.000233
    8 Atom    -14.566735      0.006462     -0.005155     -0.000962
    9 Atom    -22.229250     -0.006517      0.047276      0.006671
   10 Atom    -14.617609      0.003025     -0.000166      0.000712
   11 Atom    -14.565167      0.007564      0.007397     -0.001077
   12 Atom     -0.974041      0.005897      0.008198      0.015551
   13 Atom     -0.971805      0.010306      0.007543     -0.013534
   14 Atom     -0.977652      0.018468     -0.003965      0.000455
   15 Atom     -0.973352      0.000451     -0.018479      0.000376
   16 Atom     -0.971203      0.009187      0.005299      0.015314
   17 Atom     -0.939817     -0.002191      0.014106      0.012341
   18 Atom     -0.938721     -0.012399     -0.013634      0.004972
   19 Atom     -0.938213     -0.008412     -0.016244      0.004951
   20 Atom     -0.937328     -0.007857      0.005619     -0.016363
   21 Atom     -0.942160     -0.003656      0.011473      0.014645
   22 Atom     -0.942101     -0.003013      0.010338     -0.015566
   23 Atom     -0.968453      0.000146     -0.009660     -0.015325
   24 Atom     -0.967833      0.002030     -0.011060      0.014010
   25 Atom     -0.865591     -0.020578     -0.015640     -0.001587
   26 Atom     -0.973038      0.006509      0.007606     -0.015581
   27 Atom     -0.971054      0.004594     -0.017970     -0.001254
   28 Atom     -0.939640     -0.006799      0.013815      0.011075
   29 Atom     -0.940193     -0.003401      0.005190     -0.017868
 -----------------------------------------------------------------
 -----------------------------------------------------
    Center         ---- Electric Field Gradient ----
                     XX            YY            ZZ
 -----------------------------------------------------
    1 Atom     -500.428923   -500.290859   -500.194305
    2 Atom     -500.150605   -500.277325   -500.285384
    3 Atom     -500.425474   -500.236193   -500.254875
    4 Atom     -500.420550   -500.418086   -500.922967
    5 Atom     -812.907384   -812.859375   -812.863267
    6 Atom     -500.410545   -500.658892   -500.678836
    7 Atom     -501.022904   -500.520485   -500.383024
    8 Atom     -500.599579   -500.292967   -500.089585
    9 Atom    -1238.518256  -1236.721681  -1234.725648
   10 Atom     -500.455834   -500.211206   -500.257845
   11 Atom     -500.589398   -500.879242   -500.403470
   12 Atom       -1.738197     -1.780187     -2.020128
   13 Atom       -1.819503     -1.758109     -1.938144
   14 Atom       -2.126652     -1.720483     -1.701021
   15 Atom       -1.702085     -2.141779     -1.696105
   16 Atom       -1.795356     -1.730221     -1.989244
   17 Atom       -1.701809     -1.964034     -1.886204
   18 Atom       -1.900090     -1.930720     -1.737085
   19 Atom       -1.792428     -2.030996     -1.748850
   20 Atom       -1.772464     -1.749402     -2.023214
   21 Atom       -1.711508     -1.835238     -1.959852
   22 Atom       -1.712833     -1.811440     -1.996354
   23 Atom       -1.731340     -1.837499     -2.022331
   24 Atom       -1.743400     -1.875044     -1.974083
   25 Atom       -1.934169     -1.827098     -1.487807
   26 Atom       -1.750375     -1.780374     -2.007139
   27 Atom       -1.717531     -2.112951     -1.688008
   28 Atom       -1.762731     -1.925560     -1.856254
   29 Atom       -1.720621     -1.735342     -2.099908
 -----------------------------------------------------
 -----------------------------------------------------
    Center         ---- Electric Field Gradient ----
                     XY            XZ            YZ
 -----------------------------------------------------
    1 Atom        0.045457     -0.041050      0.009800
    2 Atom       -0.029127      0.002673     -0.001262
    3 Atom        0.070546      0.033418      0.030361
    4 Atom        0.070855     -0.138992      0.203251
    5 Atom        0.018061     -0.004079     -0.005275
    6 Atom        0.088909      0.093123     -0.326179
    7 Atom        0.173326     -0.022209      0.008695
    8 Atom        0.135219      0.044001     -0.015115
    9 Atom        0.037151      0.114722     -0.259494
   10 Atom        0.013616     -0.005128     -0.036657
   11 Atom       -0.282833      0.055661      0.119161
   12 Atom       -0.053328     -0.111145     -0.164439
   13 Atom       -0.092143      0.176681      0.134131
   14 Atom        0.091905     -0.010298      0.002197
   15 Atom        0.001469      0.001638     -0.000662
   16 Atom       -0.064526     -0.174547     -0.115383
   17 Atom        0.042214      0.025452     -0.207616
   18 Atom       -0.212865      0.060683      0.080151
   19 Atom       -0.165730      0.063300      0.100296
   20 Atom        0.065579     -0.154718      0.113462
   21 Atom        0.040496      0.050738     -0.207368
   22 Atom        0.029351     -0.043817      0.198687
   23 Atom        0.012241      0.017485     -0.197013
   24 Atom        0.044852     -0.055525      0.206509
   25 Atom       -0.328335     -0.032053     -0.037467
   26 Atom       -0.064466      0.121844      0.163130
   27 Atom        0.096644      0.004402     -0.021150
   28 Atom        0.106863      0.104678     -0.187227
   29 Atom        0.009625     -0.081180      0.104615
 -----------------------------------------------------
 -----------------------------------------------------
    Center         ---- Electric Field Gradient ----
                   ----       Eigenvalues       ----
 -----------------------------------------------------
    1 Atom     -500.449503   -500.277297   -500.187285
    2 Atom     -500.285666   -500.283476   -500.144172
    3 Atom     -500.451457   -500.276369   -500.188716
    4 Atom     -501.033665   -500.390582   -500.337356
    5 Atom     -812.913517   -812.866237   -812.850271
    6 Atom     -501.022291   -500.383473   -500.342509
    7 Atom     -501.077711   -500.466527   -500.382175
    8 Atom     -500.654520   -500.241867   -500.085744
    9 Atom    -1238.522857  -1236.753373  -1234.689355
   10 Atom     -500.456639   -500.277948   -500.190298
   11 Atom     -501.077477   -500.421301   -500.373331
   12 Atom       -2.141383     -1.701899     -1.695229
   13 Atom       -2.135365     -1.694119     -1.686272
   14 Atom       -2.146729     -1.700777     -1.700650
   15 Atom       -2.141784     -1.702499     -1.695686
   16 Atom       -2.135108     -1.693777     -1.685936
   17 Atom       -2.141751     -1.716554     -1.693742
   18 Atom       -2.152890     -1.718840     -1.696166
   19 Atom       -2.150656     -1.721507     -1.700111
   20 Atom       -2.140629     -1.712679     -1.691773
   21 Atom       -2.124269     -1.701544     -1.680784
   22 Atom       -2.129711     -1.706229     -1.684686
   23 Atom       -2.148616     -1.730301     -1.712253
   24 Atom       -2.149471     -1.730892     -1.712164
   25 Atom       -2.216557     -1.548899     -1.483617
   26 Atom       -2.141056     -1.701800     -1.695032
   27 Atom       -2.136348     -1.695202     -1.686940
   28 Atom       -2.140251     -1.713555     -1.690740
   29 Atom       -2.143298     -1.717748     -1.694826
 -----------------------------------------------------
 -----------------------------------------------------
    Center         ---- Electric Field Gradient ----
                       ( tensor representation )
                   3XX-RR        3YY-RR        3ZZ-RR
 -----------------------------------------------------
    1 Atom       -0.124228      0.013837      0.110391
    2 Atom        0.087167     -0.039554     -0.047613
    3 Atom       -0.119960      0.069321      0.050639
    4 Atom        0.166651      0.169115     -0.335766
    5 Atom       -0.030709      0.017300      0.013409
    6 Atom        0.172213     -0.076135     -0.096078
    7 Atom       -0.380766      0.121653      0.259114
    8 Atom       -0.272202      0.034411      0.237792
    9 Atom       -1.863061     -0.066486      1.929547
   10 Atom       -0.147539      0.097089      0.050450
   11 Atom        0.034639     -0.255205      0.220567
   12 Atom        0.107973      0.065984     -0.173957
   13 Atom        0.019082      0.080477     -0.099558
   14 Atom       -0.277267      0.128903      0.148364
   15 Atom        0.144571     -0.295122      0.150551
   16 Atom        0.042918      0.108052     -0.150970
   17 Atom        0.148873     -0.113351     -0.035522
   18 Atom       -0.044125     -0.074755      0.118880
   19 Atom        0.064997     -0.173571      0.108575
   20 Atom        0.075896      0.098958     -0.174854
   21 Atom        0.124024      0.000295     -0.124319
   22 Atom        0.127376      0.028769     -0.156145
   23 Atom        0.132383      0.026225     -0.158608
   24 Atom        0.120776     -0.010868     -0.109907
   25 Atom       -0.184477     -0.077407      0.261884
   26 Atom        0.095587      0.065589     -0.161176
   27 Atom        0.121965     -0.273454      0.151488
   28 Atom        0.085451     -0.077379     -0.008072
   29 Atom        0.131336      0.116615     -0.247951
 -----------------------------------------------------
 -----------------------------------------------------
    Center         ---- Electric Field Gradient ----
                       ( tensor representation )
                   ----       Eigenvalues       ----
 -----------------------------------------------------
    1 Atom       -0.144808      0.027398      0.117410
    2 Atom       -0.047895     -0.045705      0.093600
    3 Atom       -0.145943      0.029145      0.116798
    4 Atom       -0.446464      0.196619      0.249845
    5 Atom       -0.036842      0.010438      0.026404
    6 Atom       -0.439534      0.199285      0.240249
    7 Atom       -0.435573      0.175611      0.259963
    8 Atom       -0.327143      0.085510      0.241633
    9 Atom       -1.867662     -0.098178      1.965839
   10 Atom       -0.148344      0.030347      0.117997
   11 Atom       -0.453441      0.202735      0.250705
   12 Atom       -0.295212      0.144271      0.150941
   13 Atom       -0.296779      0.144466      0.152313
   14 Atom       -0.297343      0.148608      0.148735
   15 Atom       -0.295128      0.144158      0.150971
   16 Atom       -0.296834      0.144497      0.152337
   17 Atom       -0.291069      0.134129      0.156940
   18 Atom       -0.296925      0.137126      0.159799
   19 Atom       -0.293231      0.135918      0.157314
   20 Atom       -0.292269      0.135681      0.156588
   21 Atom       -0.288737      0.133989      0.154748
   22 Atom       -0.289502      0.133980      0.155522
   23 Atom       -0.284892      0.133422      0.151470
   24 Atom       -0.285296      0.133284      0.152012
   25 Atom       -0.466866      0.200792      0.266075
   26 Atom       -0.295093      0.144163      0.150931
   27 Atom       -0.296851      0.144294      0.152556
   28 Atom       -0.292069      0.134627      0.157442
   29 Atom       -0.291341      0.134210      0.157131
 -----------------------------------------------------

 Test job not archived.
 1|1|UNPC-NP-ALMACH|FOpt|RB3LYP|6-311++G(d,p)|C9H18N1O1(1+)|HERA|15-Aug
 -2018|0||# RB3LYP/6-311++G** Opt Test prop=EFG||C9NH18O||1,1|C,1.97590
 40165,1.2744968333,-0.8573474121|C,1.8927149719,-0.0519548686,-1.63088
 99671|C,2.1117229288,-1.209782064,-0.642355527|C,1.1763581687,-1.01980
 98113,0.5708966521|N,0.0962547489,0.0053807088,0.2419845674|C,-0.54066
 92464,-0.3565047918,-1.094042565|C,-0.9307915161,0.1015058262,1.346791
 3545|C,-1.8735689367,-1.0930819356,1.5139492142|O,-2.5736932335,-0.780
 0721211,2.703198176|C,0.4840908694,-0.1776441743,-2.2356820783|C,0.769
 1803071,1.3695071195,0.098318752|H,2.9122122935,1.3297095661,-0.297855
 7542|H,1.9606110058,2.1250247211,-1.541039913|H,2.645681942,-0.0795576
 093,-2.4186813554|H,1.9144601262,-2.1668318398,-1.1305584555|H,3.14644
 82559,-1.2348786715,-0.2963618372|H,1.6996810167,-0.6302229921,1.44476
 52979|H,0.6772793606,-1.9429121234,0.8573091247|H,-0.8764990491,-1.389
 2075365,-1.0063392585|H,-1.4168743483,0.2814870122,-1.210823222|H,-0.3
 835095753,0.2466968057,2.279325117|H,-1.5215307296,0.9987237348,1.1573
 154101|H,-2.5549472049,-1.1816794875,0.6602237789|H,-1.3189116137,-2.0
 341357673,1.6147714096|H,-3.2680628373,-1.4286597237,2.8604677567|H,0.
 2457704227,0.7099076809,-2.8258976793|H,0.4241743608,-1.0349776161,-2.
 9082855122|H,1.0498934348,1.6882707035,1.1019433673|H,-0.0029629393,2.
 0455984218,-0.2700084415||Version=EM64W-G09RevD.01|State=1-A|HF=-483.6
 662264|RMSD=2.468e-009|RMSF=9.047e-006|Dipole=0.0410824,-0.2407865,-0.
 4169861|Quadrupole=3.6474703,-0.6689421,-2.9785282,4.5366487,-2.820790
 7,-2.9769505|PG=C01 [X(C9H18N1O1)]||@


 THERE IS MUCH PLEASURE TO BE GAINED FROM USELESS KNOWLEDGE

                                       -- BERTRAND RUSSELL
 Job cpu time:       0 days  0 hours 23 minutes 12.0 seconds.
 File lengths (MBytes):  RWF=     62 Int=      0 D2E=      0 Chk=     10 Scr=      1
 Normal termination of Gaussian 09 at Wed Aug 15 11:54:54 2018.
