 Entering Link 1 = C:\G09W\l1.exe PID=     14388.
  
 Copyright (c) 1988,1990,1992,1993,1995,1998,2003,2009,2013,
            Gaussian, Inc.  All Rights Reserved.
  
 This is part of the Gaussian(R) 09 program.  It is based on
 the Gaussian(R) 03 system (copyright 2003, Gaussian, Inc.),
 the Gaussian(R) 98 system (copyright 1998, Gaussian, Inc.),
 the Gaussian(R) 94 system (copyright 1995, Gaussian, Inc.),
 the Gaussian 92(TM) system (copyright 1992, Gaussian, Inc.),
 the Gaussian 90(TM) system (copyright 1990, Gaussian, Inc.),
 the Gaussian 88(TM) system (copyright 1988, Gaussian, Inc.),
 the Gaussian 86(TM) system (copyright 1986, Carnegie Mellon
 University), and the Gaussian 82(TM) system (copyright 1983,
 Carnegie Mellon University). Gaussian is a federally registered
 trademark of Gaussian, Inc.
  
 This software contains proprietary and confidential information,
 including trade secrets, belonging to Gaussian, Inc.
  
 This software is provided under written license and may be
 used, copied, transmitted, or stored only in accord with that
 written license.
  
 The following legend is applicable only to US Government
 contracts under FAR:
  
                    RESTRICTED RIGHTS LEGEND
  
 Use, reproduction and disclosure by the US Government is
 subject to restrictions as set forth in subparagraphs (a)
 and (c) of the Commercial Computer Software - Restricted
 Rights clause in FAR 52.227-19.
  
 Gaussian, Inc.
 340 Quinnipiac St., Bldg. 40, Wallingford CT 06492
  
  
 ---------------------------------------------------------------
 Warning -- This program may not be used in any manner that
 competes with the business of Gaussian, Inc. or will provide
 assistance to any competitor of Gaussian, Inc.  The licensee
 of this program is prohibited from giving any competitor of
 Gaussian, Inc. access to this program.  By using this program,
 the user acknowledges that Gaussian, Inc. is engaged in the
 business of creating and licensing software in the field of
 computational chemistry and represents and warrants to the
 licensee that it is not a competitor of Gaussian, Inc. and that
 it will not use this program in any manner prohibited above.
 ---------------------------------------------------------------
  

 Cite this work as:
 Gaussian 09, Revision D.01,
 M. J. Frisch, G. W. Trucks, H. B. Schlegel, G. E. Scuseria, 
 M. A. Robb, J. R. Cheeseman, G. Scalmani, V. Barone, B. Mennucci, 
 G. A. Petersson, H. Nakatsuji, M. Caricato, X. Li, H. P. Hratchian, 
 A. F. Izmaylov, J. Bloino, G. Zheng, J. L. Sonnenberg, M. Hada, 
 M. Ehara, K. Toyota, R. Fukuda, J. Hasegawa, M. Ishida, T. Nakajima, 
 Y. Honda, O. Kitao, H. Nakai, T. Vreven, J. A. Montgomery, Jr., 
 J. E. Peralta, F. Ogliaro, M. Bearpark, J. J. Heyd, E. Brothers, 
 K. N. Kudin, V. N. Staroverov, T. Keith, R. Kobayashi, J. Normand, 
 K. Raghavachari, A. Rendell, J. C. Burant, S. S. Iyengar, J. Tomasi, 
 M. Cossi, N. Rega, J. M. Millam, M. Klene, J. E. Knox, J. B. Cross, 
 V. Bakken, C. Adamo, J. Jaramillo, R. Gomperts, R. E. Stratmann, 
 O. Yazyev, A. J. Austin, R. Cammi, C. Pomelli, J. W. Ochterski, 
 R. L. Martin, K. Morokuma, V. G. Zakrzewski, G. A. Voth, 
 P. Salvador, J. J. Dannenberg, S. Dapprich, A. D. Daniels, 
 O. Farkas, J. B. Foresman, J. V. Ortiz, J. Cioslowski, 
 and D. J. Fox, Gaussian, Inc., Wallingford CT, 2013.
 
 ******************************************
 Gaussian 09:  EM64W-G09RevD.01 13-Apr-2013
                04-Aug-2018 
 ******************************************
 %Chk=Anth_375.chk
 %Mem=64GB
 %NProcShared=20
 Will use up to   20 processors via shared memory.
 -------------------------------------
 # RB3LYP/6-311++G** Opt Test prop=EFG
 -------------------------------------
 1/14=-1,18=20,19=15,26=3,38=1/1,3;
 2/9=110,12=2,17=6,18=5,40=1/2;
 3/5=4,6=6,7=1111,11=2,16=1,25=1,30=1,71=1,74=-5,116=1/1,2,3;
 4//1;
 5/5=2,38=5/2;
 6/7=2,8=2,9=2,10=2,14=1,28=1/1,2;
 7//1,2,3,16;
 1/14=-1,18=20,19=15,26=3/3(2);
 2/9=110/2;
 99//99;
 2/9=110/2;
 3/5=4,6=6,7=1111,11=2,16=1,25=1,30=1,71=1,74=-5,116=1/1,2,3;
 4/5=5,16=3,69=1/1;
 5/5=2,38=5/2;
 7//1,2,3,16;
 1/14=-1,18=20,19=15,26=3/3(-5);
 2/9=110/2;
 6/7=2,8=2,9=2,10=2,14=1,19=2,28=1/1,2;
 99/9=1/99;
 -------
 C5PH14O
 -------
 Symbolic Z-matrix:
 Charge =  1 Multiplicity = 1
 C                    -0.39664   1.60411   0.77446 
 P                     0.0858   -0.19638   0.77446 
 C                     1.94405  -0.34263   0.77446 
 C                    -0.6016   -1.02289   2.29724 
 C                    -0.60228  -1.0237   -0.74758 
 C                    -1.3713   -0.00376  -1.57694 
 O                    -1.88884  -0.62602  -2.72173 
 H                    -1.50621   1.69143   0.77446 
 H                     0.01381   2.09762  -0.1348 
 H                     0.01422   2.0981    1.68327 
 H                     2.23212  -1.4177    0.77446 
 H                     2.3545    0.15088  -0.1348 
 H                     2.35491   0.15137   1.68327 
 H                    -0.31408  -2.0981    2.29822 
 H                    -1.71121  -0.93612   2.29691 
 H                    -0.19016  -0.52818   3.2054 
 H                     0.23385  -1.43912  -1.35346 
 H                    -1.28692  -1.84724  -0.44456 
 H                    -2.20743   0.41167  -0.97106 
 H                    -0.68666   0.81979  -1.87995 
 H                    -2.35491   0.03444  -3.2054 
 

 GradGradGradGradGradGradGradGradGradGradGradGradGradGradGradGradGradGrad
 Berny optimization.
 Initialization pass.
                           ----------------------------
                           !    Initial Parameters    !
                           ! (Angstroms and Degrees)  !
 --------------------------                            --------------------------
 ! Name  Definition              Value          Derivative Info.                !
 --------------------------------------------------------------------------------
 ! R1    R(1,2)                  1.864          estimate D2E/DX2                !
 ! R2    R(1,8)                  1.113          estimate D2E/DX2                !
 ! R3    R(1,9)                  1.113          estimate D2E/DX2                !
 ! R4    R(1,10)                 1.113          estimate D2E/DX2                !
 ! R5    R(2,3)                  1.864          estimate D2E/DX2                !
 ! R6    R(2,4)                  1.864          estimate D2E/DX2                !
 ! R7    R(2,5)                  1.864          estimate D2E/DX2                !
 ! R8    R(3,11)                 1.113          estimate D2E/DX2                !
 ! R9    R(3,12)                 1.113          estimate D2E/DX2                !
 ! R10   R(3,13)                 1.113          estimate D2E/DX2                !
 ! R11   R(4,14)                 1.113          estimate D2E/DX2                !
 ! R12   R(4,15)                 1.113          estimate D2E/DX2                !
 ! R13   R(4,16)                 1.113          estimate D2E/DX2                !
 ! R14   R(5,6)                  1.523          estimate D2E/DX2                !
 ! R15   R(5,17)                 1.113          estimate D2E/DX2                !
 ! R16   R(5,18)                 1.113          estimate D2E/DX2                !
 ! R17   R(6,7)                  1.402          estimate D2E/DX2                !
 ! R18   R(6,19)                 1.113          estimate D2E/DX2                !
 ! R19   R(6,20)                 1.113          estimate D2E/DX2                !
 ! R20   R(7,21)                 0.942          estimate D2E/DX2                !
 ! A1    A(2,1,8)              109.5            estimate D2E/DX2                !
 ! A2    A(2,1,9)              109.4418         estimate D2E/DX2                !
 ! A3    A(2,1,10)             109.4618         estimate D2E/DX2                !
 ! A4    A(8,1,9)              109.4419         estimate D2E/DX2                !
 ! A5    A(8,1,10)             109.4619         estimate D2E/DX2                !
 ! A6    A(9,1,10)             109.52           estimate D2E/DX2                !
 ! A7    A(1,2,3)              109.5            estimate D2E/DX2                !
 ! A8    A(1,2,4)              109.4419         estimate D2E/DX2                !
 ! A9    A(1,2,5)              109.4618         estimate D2E/DX2                !
 ! A10   A(3,2,4)              109.4418         estimate D2E/DX2                !
 ! A11   A(3,2,5)              109.4618         estimate D2E/DX2                !
 ! A12   A(4,2,5)              109.52           estimate D2E/DX2                !
 ! A13   A(2,3,11)             109.5            estimate D2E/DX2                !
 ! A14   A(2,3,12)             109.4419         estimate D2E/DX2                !
 ! A15   A(2,3,13)             109.4619         estimate D2E/DX2                !
 ! A16   A(11,3,12)            109.4418         estimate D2E/DX2                !
 ! A17   A(11,3,13)            109.4618         estimate D2E/DX2                !
 ! A18   A(12,3,13)            109.52           estimate D2E/DX2                !
 ! A19   A(2,4,14)             109.5            estimate D2E/DX2                !
 ! A20   A(2,4,15)             109.4418         estimate D2E/DX2                !
 ! A21   A(2,4,16)             109.4618         estimate D2E/DX2                !
 ! A22   A(14,4,15)            109.4419         estimate D2E/DX2                !
 ! A23   A(14,4,16)            109.4618         estimate D2E/DX2                !
 ! A24   A(15,4,16)            109.52           estimate D2E/DX2                !
 ! A25   A(2,5,6)              109.5            estimate D2E/DX2                !
 ! A26   A(2,5,17)             109.4418         estimate D2E/DX2                !
 ! A27   A(2,5,18)             109.4618         estimate D2E/DX2                !
 ! A28   A(6,5,17)             109.4419         estimate D2E/DX2                !
 ! A29   A(6,5,18)             109.4619         estimate D2E/DX2                !
 ! A30   A(17,5,18)            109.52           estimate D2E/DX2                !
 ! A31   A(5,6,7)              109.5            estimate D2E/DX2                !
 ! A32   A(5,6,19)             109.4419         estimate D2E/DX2                !
 ! A33   A(5,6,20)             109.4619         estimate D2E/DX2                !
 ! A34   A(7,6,19)             109.4418         estimate D2E/DX2                !
 ! A35   A(7,6,20)             109.4618         estimate D2E/DX2                !
 ! A36   A(19,6,20)            109.52           estimate D2E/DX2                !
 ! A37   A(6,7,21)             106.9            estimate D2E/DX2                !
 ! D1    D(8,1,2,3)            180.0            estimate D2E/DX2                !
 ! D2    D(8,1,2,4)            -60.0364         estimate D2E/DX2                !
 ! D3    D(8,1,2,5)             59.9996         estimate D2E/DX2                !
 ! D4    D(9,1,2,3)             60.0363         estimate D2E/DX2                !
 ! D5    D(9,1,2,4)            180.0            estimate D2E/DX2                !
 ! D6    D(9,1,2,5)            -59.9641         estimate D2E/DX2                !
 ! D7    D(10,1,2,3)           -59.9996         estimate D2E/DX2                !
 ! D8    D(10,1,2,4)            59.9641         estimate D2E/DX2                !
 ! D9    D(10,1,2,5)          -180.0            estimate D2E/DX2                !
 ! D10   D(1,2,3,11)           180.0            estimate D2E/DX2                !
 ! D11   D(1,2,3,12)           -60.0364         estimate D2E/DX2                !
 ! D12   D(1,2,3,13)            59.9996         estimate D2E/DX2                !
 ! D13   D(4,2,3,11)            60.0363         estimate D2E/DX2                !
 ! D14   D(4,2,3,12)           180.0            estimate D2E/DX2                !
 ! D15   D(4,2,3,13)           -59.964          estimate D2E/DX2                !
 ! D16   D(5,2,3,11)           -59.9996         estimate D2E/DX2                !
 ! D17   D(5,2,3,12)            59.964          estimate D2E/DX2                !
 ! D18   D(5,2,3,13)          -180.0            estimate D2E/DX2                !
 ! D19   D(1,2,4,14)          -180.0            estimate D2E/DX2                !
 ! D20   D(1,2,4,15)            60.0363         estimate D2E/DX2                !
 ! D21   D(1,2,4,16)           -59.9996         estimate D2E/DX2                !
 ! D22   D(3,2,4,14)           -60.0007         estimate D2E/DX2                !
 ! D23   D(3,2,4,15)          -179.9644         estimate D2E/DX2                !
 ! D24   D(3,2,4,16)            59.9997         estimate D2E/DX2                !
 ! D25   D(5,2,4,14)            59.9997         estimate D2E/DX2                !
 ! D26   D(5,2,4,15)           -59.964          estimate D2E/DX2                !
 ! D27   D(5,2,4,16)          -180.0            estimate D2E/DX2                !
 ! D28   D(1,2,5,6)              0.0            estimate D2E/DX2                !
 ! D29   D(1,2,5,17)           119.9637         estimate D2E/DX2                !
 ! D30   D(1,2,5,18)          -120.0004         estimate D2E/DX2                !
 ! D31   D(3,2,5,6)           -120.0238         estimate D2E/DX2                !
 ! D32   D(3,2,5,17)            -0.0601         estimate D2E/DX2                !
 ! D33   D(3,2,5,18)           119.9758         estimate D2E/DX2                !
 ! D34   D(4,2,5,6)            119.9881         estimate D2E/DX2                !
 ! D35   D(4,2,5,17)          -120.0482         estimate D2E/DX2                !
 ! D36   D(4,2,5,18)            -0.0123         estimate D2E/DX2                !
 ! D37   D(2,5,6,7)            180.0            estimate D2E/DX2                !
 ! D38   D(2,5,6,19)           -60.0364         estimate D2E/DX2                !
 ! D39   D(2,5,6,20)            59.9997         estimate D2E/DX2                !
 ! D40   D(17,5,6,7)            60.0364         estimate D2E/DX2                !
 ! D41   D(17,5,6,19)          180.0            estimate D2E/DX2                !
 ! D42   D(17,5,6,20)          -59.9639         estimate D2E/DX2                !
 ! D43   D(18,5,6,7)           -59.9997         estimate D2E/DX2                !
 ! D44   D(18,5,6,19)           59.964          estimate D2E/DX2                !
 ! D45   D(18,5,6,20)         -180.0            estimate D2E/DX2                !
 ! D46   D(5,6,7,21)          -180.0            estimate D2E/DX2                !
 ! D47   D(19,6,7,21)           60.0363         estimate D2E/DX2                !
 ! D48   D(20,6,7,21)          -59.9996         estimate D2E/DX2                !
 --------------------------------------------------------------------------------
 Trust Radius=3.00D-01 FncErr=1.00D-07 GrdErr=1.00D-06
 Number of steps in this run=    115 maximum allowed number of steps=    126.
 GradGradGradGradGradGradGradGradGradGradGradGradGradGradGradGradGradGrad

                          Input orientation:                          
 ---------------------------------------------------------------------
 Center     Atomic      Atomic             Coordinates (Angstroms)
 Number     Number       Type             X           Y           Z
 ---------------------------------------------------------------------
      1          6           0       -0.396639    1.604108    0.774455
      2         15           0        0.085800   -0.196378    0.774455
      3          6           0        1.944054   -0.342626    0.774455
      4          6           0       -0.601598   -1.022885    2.297238
      5          6           0       -0.602278   -1.023702   -0.747577
      6          6           0       -1.371302   -0.003755   -1.576936
      7          8           0       -1.888837   -0.626023   -2.721727
      8          1           0       -1.506207    1.691433    0.774455
      9          1           0        0.013809    2.097616   -0.134803
     10          1           0        0.014215    2.098105    1.683265
     11          1           0        2.232120   -1.417702    0.774455
     12          1           0        2.354502    0.150883   -0.134803
     13          1           0        2.354908    0.151371    1.683265
     14          1           0       -0.314077   -2.098105    2.298217
     15          1           0       -1.711211   -0.936124    2.296912
     16          1           0       -0.190155   -0.528178    3.205396
     17          1           0        0.233845   -1.439124   -1.353457
     18          1           0       -1.286917   -1.847243   -0.444562
     19          1           0       -2.207425    0.411667   -0.971056
     20          1           0       -0.686662    0.819786   -1.879951
     21          1           0       -2.354908    0.034436   -3.205396
 ---------------------------------------------------------------------
                    Distance matrix (angstroms):
                    1          2          3          4          5
     1  C    0.000000
     2  P    1.864000   0.000000
     3  C    3.044440   1.864000   0.000000
     4  C    3.043348   1.864001   3.043348   0.000000
     5  C    3.043724   1.864000   3.043723   3.044815   0.000000
     6  C    3.010686   2.772957   4.078659   4.079252   1.522999
     7  O    4.407202   4.038202   5.195638   5.196585   2.389697
     8  H    1.112999   2.469477   4.005209   3.241097   3.241239
     9  H    1.112999   2.468672   3.241508   4.003883   3.240013
    10  H    1.113000   2.468950   3.241509   3.239871   4.004340
    11  H    4.005210   2.469478   1.113001   3.241096   3.241239
    12  H    3.241510   2.468674   1.113000   4.003883   3.240014
    13  H    3.241511   2.468950   1.113000   3.239872   4.004340
    14  H    4.004379   2.469477   3.240789   1.112999   3.242570
    15  H    3.240178   2.468673   4.003883   1.113000   3.241345
    16  H    3.240178   2.468950   3.240178   1.113001   4.005170
    17  H    3.766534   2.468673   2.941961   3.768129   1.112999
    18  H    3.767018   2.468949   3.766835   2.943925   1.113000
    19  H    2.783464   2.945405   4.566240   3.913868   2.164884
    20  H    2.783010   2.945362   3.913788   4.566353   2.165142
    21  H    4.705093   4.674350   5.870474   5.871201   3.198788
                    6          7          8          9         10
     6  C    0.000000
     7  O    1.402001   0.000000
     8  H    2.901879   4.211923   0.000000
     9  H    2.900696   4.210754   1.817191   0.000000
    10  H    4.119027   5.517829   1.817416   1.818068   0.000000
    11  H    4.529121   5.461898   4.862284   4.255011   4.255107
    12  H    3.998159   5.030078   4.255011   3.044440   3.545982
    13  H    4.953546   6.165847   4.255107   3.545982   3.044440
    14  H    4.529993   5.463216   4.254835   4.861190   4.253718
    15  H    3.998943   5.031347   3.043675   4.253529   3.544038
    16  H    4.953870   6.166513   3.545157   4.253625   3.042370
    17  H    2.164884   2.653125   4.166075   3.747274   4.667109
    18  H    2.165142   2.653143   3.749176   4.165303   4.667586
    19  H    1.112999   2.059890   2.275152   2.911292   3.850348
    20  H    1.113000   2.060140   2.911579   2.273555   3.849914
    21  H    1.902846   0.942000   4.393762   4.392730   5.811237
                   11         12         13         14         15
    11  H    0.000000
    12  H    1.817192   0.000000
    13  H    1.817416   1.818068   0.000000
    14  H    3.044326   4.254274   3.544261   0.000000
    15  H    4.254369   4.860540   4.253532   1.817192   0.000000
    16  H    3.545158   4.253626   3.042370   1.817416   1.818069
    17  H    2.919173   2.917263   4.031162   3.750893   4.166707
    18  H    3.748884   4.165140   4.667440   2.920991   2.919905
    19  H    5.109106   4.645267   5.284700   4.535622   3.569648
    20  H    4.535583   3.569545   4.732276   5.109794   4.645332
    21  H    6.244097   5.623224   6.789333   6.245196   5.624209
                   16         17         18         19         20
    16  H    0.000000
    17  H    4.668269   0.000000
    18  H    4.032991   1.818067   0.000000
    19  H    4.732382   3.087306   2.495437   0.000000
    20  H    5.284343   2.495437   3.087668   1.818068   0.000000
    21  H    6.789768   3.507520   3.507638   2.270755   2.270820
                   21
    21  H    0.000000
 Stoichiometry    C5H14OP(1+)
 Framework group  C1[X(C5H14OP)]
 Deg. of freedom    57
 Full point group                 C1      NOp   1
 Largest Abelian subgroup         C1      NOp   1
 Largest concise Abelian subgroup C1      NOp   1
                         Standard orientation:                         
 ---------------------------------------------------------------------
 Center     Atomic      Atomic             Coordinates (Angstroms)
 Number     Number       Type             X           Y           Z
 ---------------------------------------------------------------------
      1          6           0        0.649320    1.833039   -0.037735
      2         15           0        0.839330   -0.020860    0.000342
      3          6           0        1.776575   -0.581432   -1.510229
      4          6           0        1.777960   -0.517004    1.532436
      5          6           0       -0.845707   -0.817652    0.016889
      6          6           0       -1.919099    0.262563   -0.005198
      7          8           0       -3.186493   -0.336740    0.007247
      8          1           0        0.089688    2.167758    0.864231
      9          1           0        0.088861    2.129286   -0.952553
     10          1           0        1.655461    2.308805   -0.047615
     11          1           0        1.890031   -1.688402   -1.487493
     12          1           0        1.216116   -0.285184   -2.425047
     13          1           0        2.782716   -0.105666   -1.520110
     14          1           0        1.891979   -1.623894    1.556148
     15          1           0        1.218008   -0.182854    2.434415
     16          1           0        2.783859   -0.040746    1.521567
     17          1           0       -0.956572   -1.468456   -0.879175
     18          1           0       -0.956494   -1.431728    0.938521
     19          1           0       -1.808234    0.913367    0.890866
     20          1           0       -1.808312    0.876639   -0.926831
     21          1           0       -3.819406    0.360814   -0.007022
 ---------------------------------------------------------------------
 Rotational constants (GHZ):      3.0393364      1.1196141      1.1130342
 Standard basis: 6-311++G(d,p) (5D, 7F)
 There are   267 symmetry adapted cartesian basis functions of A   symmetry.
 There are   260 symmetry adapted basis functions of A   symmetry.
   260 basis functions,   392 primitive gaussians,   267 cartesian basis functions
    33 alpha electrons       33 beta electrons
       nuclear repulsion energy       411.2897663540 Hartrees.
 NAtoms=   21 NActive=   21 NUniq=   21 SFac= 1.00D+00 NAtFMM=   60 NAOKFM=F Big=F
 Integral buffers will be    131072 words long.
 Raffenetti 2 integral format.
 Two-electron integral symmetry is turned on.
 One-electron integrals computed using PRISM.
 NBasis=   260 RedAO= T EigKep=  1.04D-05  NBF=   260
 NBsUse=   260 1.00D-06 EigRej= -1.00D+00 NBFU=   260
 ExpMin= 3.48D-02 ExpMax= 7.75D+04 ExpMxC= 2.65D+03 IAcc=3 IRadAn=         5 AccDes= 0.00D+00
 Harris functional with IExCor=  402 and IRadAn=       5 diagonalized for initial guess.
 HarFok:  IExCor=  402 AccDes= 0.00D+00 IRadAn=         5 IDoV= 1 UseB2=F ITyADJ=14
 ICtDFT=  3500011 ScaDFX=  1.000000  1.000000  1.000000  1.000000
 FoFCou: FMM=F IPFlag=           0 FMFlag=      100000 FMFlg1=           0
         NFxFlg=           0 DoJE=T BraDBF=F KetDBF=T FulRan=T
         wScrn=  0.000000 ICntrl=     500 IOpCl=  0 I1Cent=   200000004 NGrid=           0
         NMat0=    1 NMatS0=      1 NMatT0=    0 NMatD0=    1 NMtDS0=    0 NMtDT0=    0
 Petite list used in FoFCou.
 Keep R1 ints in memory in canonical form, NReq=585503477.
 Requested convergence on RMS density matrix=1.00D-08 within 128 cycles.
 Requested convergence on MAX density matrix=1.00D-06.
 Requested convergence on             energy=1.00D-06.
 No special actions if energy rises.
 SCF Done:  E(RB3LYP) =  -615.427505938     A.U. after   12 cycles
            NFock= 12  Conv=0.47D-08     -V/T= 2.0037

 **********************************************************************

            Population analysis using the SCF density.

 **********************************************************************

 Orbital symmetries:
       Occupied  (A) (A) (A) (A) (A) (A) (A) (A) (A) (A) (A) (A)
                 (A) (A) (A) (A) (A) (A) (A) (A) (A) (A) (A) (A)
                 (A) (A) (A) (A) (A) (A) (A) (A) (A)
       Virtual   (A) (A) (A) (A) (A) (A) (A) (A) (A) (A) (A) (A)
                 (A) (A) (A) (A) (A) (A) (A) (A) (A) (A) (A) (A)
                 (A) (A) (A) (A) (A) (A) (A) (A) (A) (A) (A) (A)
                 (A) (A) (A) (A) (A) (A) (A) (A) (A) (A) (A) (A)
                 (A) (A) (A) (A) (A) (A) (A) (A) (A) (A) (A) (A)
                 (A) (A) (A) (A) (A) (A) (A) (A) (A) (A) (A) (A)
                 (A) (A) (A) (A) (A) (A) (A) (A) (A) (A) (A) (A)
                 (A) (A) (A) (A) (A) (A) (A) (A) (A) (A) (A) (A)
                 (A) (A) (A) (A) (A) (A) (A) (A) (A) (A) (A) (A)
                 (A) (A) (A) (A) (A) (A) (A) (A) (A) (A) (A) (A)
                 (A) (A) (A) (A) (A) (A) (A) (A) (A) (A) (A) (A)
                 (A) (A) (A) (A) (A) (A) (A) (A) (A) (A) (A) (A)
                 (A) (A) (A) (A) (A) (A) (A) (A) (A) (A) (A) (A)
                 (A) (A) (A) (A) (A) (A) (A) (A) (A) (A) (A) (A)
                 (A) (A) (A) (A) (A) (A) (A) (A) (A) (A) (A) (A)
                 (A) (A) (A) (A) (A) (A) (A) (A) (A) (A) (A) (A)
                 (A) (A) (A) (A) (A) (A) (A) (A) (A) (A) (A) (A)
                 (A) (A) (A) (A) (A) (A) (A) (A) (A) (A) (A) (A)
                 (A) (A) (A) (A) (A) (A) (A) (A) (A) (A) (A)
 The electronic state is 1-A.
 Alpha  occ. eigenvalues --  -77.30490 -19.26285 -10.38415 -10.36938 -10.36779
 Alpha  occ. eigenvalues --  -10.36778 -10.36423  -6.79719  -4.95777  -4.95767
 Alpha  occ. eigenvalues --   -4.95759  -1.17961  -0.98459  -0.91449  -0.88415
 Alpha  occ. eigenvalues --   -0.88192  -0.79052  -0.72596  -0.67526  -0.65123
 Alpha  occ. eigenvalues --   -0.61997  -0.61763  -0.61038  -0.59263  -0.59049
 Alpha  occ. eigenvalues --   -0.57755  -0.57446  -0.55609  -0.53632  -0.52909
 Alpha  occ. eigenvalues --   -0.52717  -0.48791  -0.42260
 Alpha virt. eigenvalues --   -0.15526  -0.14226  -0.13693  -0.12784  -0.12461
 Alpha virt. eigenvalues --   -0.11756  -0.11151  -0.11044  -0.09500  -0.08942
 Alpha virt. eigenvalues --   -0.08863  -0.07965  -0.07531  -0.06106  -0.05693
 Alpha virt. eigenvalues --   -0.05491  -0.05058  -0.04485  -0.04095  -0.04036
 Alpha virt. eigenvalues --   -0.03156  -0.02942  -0.02356  -0.00919  -0.00796
 Alpha virt. eigenvalues --   -0.00374  -0.00064   0.00799   0.01992   0.02373
 Alpha virt. eigenvalues --    0.02567   0.02771   0.02916   0.03174   0.03818
 Alpha virt. eigenvalues --    0.03830   0.04355   0.04504   0.05218   0.05595
 Alpha virt. eigenvalues --    0.05744   0.05754   0.07233   0.07776   0.08007
 Alpha virt. eigenvalues --    0.09118   0.09547   0.09870   0.09906   0.10615
 Alpha virt. eigenvalues --    0.11757   0.13552   0.13775   0.14145   0.16136
 Alpha virt. eigenvalues --    0.16498   0.19004   0.19208   0.19985   0.20533
 Alpha virt. eigenvalues --    0.21435   0.21851   0.22695   0.23387   0.24771
 Alpha virt. eigenvalues --    0.25620   0.29435   0.32578   0.33050   0.35001
 Alpha virt. eigenvalues --    0.36178   0.36419   0.37811   0.39600   0.41041
 Alpha virt. eigenvalues --    0.41291   0.42264   0.42815   0.45443   0.45860
 Alpha virt. eigenvalues --    0.48888   0.49566   0.49988   0.50440   0.51154
 Alpha virt. eigenvalues --    0.53413   0.53648   0.54487   0.54909   0.55981
 Alpha virt. eigenvalues --    0.57796   0.58132   0.59841   0.60230   0.61433
 Alpha virt. eigenvalues --    0.63358   0.65661   0.65907   0.66405   0.69045
 Alpha virt. eigenvalues --    0.75279   0.75904   0.76540   0.83424   0.84957
 Alpha virt. eigenvalues --    0.86342   0.89159   0.90790   0.92289   0.97240
 Alpha virt. eigenvalues --    1.02710   1.03260   1.06490   1.06879   1.10857
 Alpha virt. eigenvalues --    1.11891   1.13006   1.23950   1.25262   1.25876
 Alpha virt. eigenvalues --    1.26670   1.29656   1.34598   1.36532   1.37894
 Alpha virt. eigenvalues --    1.39418   1.39953   1.40774   1.41415   1.41953
 Alpha virt. eigenvalues --    1.43260   1.43818   1.44854   1.46750   1.46950
 Alpha virt. eigenvalues --    1.49448   1.49703   1.50850   1.53646   1.55273
 Alpha virt. eigenvalues --    1.57645   1.57680   1.62079   1.63354   1.63470
 Alpha virt. eigenvalues --    1.68503   1.68798   1.69806   1.79330   1.79840
 Alpha virt. eigenvalues --    1.80704   1.81595   1.83838   1.87661   1.90917
 Alpha virt. eigenvalues --    1.93338   1.96144   1.96762   1.97368   1.98879
 Alpha virt. eigenvalues --    2.01800   2.03337   2.04519   2.05298   2.08863
 Alpha virt. eigenvalues --    2.15608   2.24956   2.25576   2.27118   2.27694
 Alpha virt. eigenvalues --    2.28681   2.29513   2.30475   2.31075   2.32748
 Alpha virt. eigenvalues --    2.34352   2.34866   2.36129   2.36312   2.38085
 Alpha virt. eigenvalues --    2.39675   2.45684   2.47472   2.50287   2.51105
 Alpha virt. eigenvalues --    2.54604   2.57382   2.59057   2.69330   2.72363
 Alpha virt. eigenvalues --    2.75305   2.81792   2.84132   2.86426   2.90513
 Alpha virt. eigenvalues --    2.98058   3.04565   3.07122   3.09356   3.10418
 Alpha virt. eigenvalues --    3.15348   3.26269   3.49869   3.50878   3.51855
 Alpha virt. eigenvalues --    3.53410   3.54361   3.56076   3.58635   3.66189
 Alpha virt. eigenvalues --    3.74963   3.83817   4.03589   4.92685   5.28711
 Alpha virt. eigenvalues --    5.56279   6.90881  13.82472  13.83486  13.87299
 Alpha virt. eigenvalues --   23.65661  23.66076  23.68836  23.69722  23.71724
 Alpha virt. eigenvalues --   49.79145 163.05234
          Condensed to atoms (all electrons):
               1          2          3          4          5          6
     1  C    6.372247  -1.469174  -0.021906  -0.023188   0.355366  -0.382125
     2  P   -1.469174  19.810946  -0.256380  -0.255424  -1.952000   0.769363
     3  C   -0.021906  -0.256380   5.791988  -0.200577   0.002498   0.028352
     4  C   -0.023188  -0.255424  -0.200577   5.791609   0.003295   0.027892
     5  C    0.355366  -1.952000   0.002498   0.003295   7.392196  -0.836165
     6  C   -0.382125   0.769363   0.028352   0.027892  -0.836165   6.059246
     7  O    0.016240  -0.031182   0.005991   0.006010  -0.165427   0.302036
     8  H    0.366758  -0.054541   0.026269  -0.017516  -0.017243   0.025247
     9  H    0.366416  -0.054431  -0.017532   0.026350  -0.016996   0.025010
    10  H    0.447550  -0.241398   0.008140   0.008222   0.059650  -0.015678
    11  H    0.015168  -0.045369   0.351329  -0.004662   0.028580  -0.021749
    12  H    0.011072  -0.133391   0.388151   0.016052   0.024396  -0.001908
    13  H   -0.001624  -0.060934   0.384091  -0.009643   0.010432   0.002031
    14  H    0.015230  -0.045028  -0.004716   0.351301   0.028374  -0.021723
    15  H    0.011049  -0.133353   0.016125   0.387989   0.024488  -0.001962
    16  H   -0.001690  -0.060988  -0.009658   0.384133   0.010484   0.002044
    17  H    0.015003  -0.140032   0.055149  -0.032113   0.402598  -0.001807
    18  H    0.014650  -0.139442  -0.032243   0.055118   0.402869  -0.002168
    19  H    0.047892  -0.097371   0.024303  -0.032263   0.034111   0.317239
    20  H    0.046780  -0.096172  -0.032327   0.024269   0.034717   0.316493
    21  H   -0.013889   0.030945  -0.001256  -0.001257  -0.026021   0.035338
               7          8          9         10         11         12
     1  C    0.016240   0.366758   0.366416   0.447550   0.015168   0.011072
     2  P   -0.031182  -0.054541  -0.054431  -0.241398  -0.045369  -0.133391
     3  C    0.005991   0.026269  -0.017532   0.008140   0.351329   0.388151
     4  C    0.006010  -0.017516   0.026350   0.008222  -0.004662   0.016052
     5  C   -0.165427  -0.017243  -0.016996   0.059650   0.028580   0.024396
     6  C    0.302036   0.025247   0.025010  -0.015678  -0.021749  -0.001908
     7  O    7.956366   0.000963   0.000967   0.000460  -0.000572   0.000364
     8  H    0.000963   0.529425  -0.039236  -0.020759  -0.002445   0.002772
     9  H    0.000967  -0.039236   0.529753  -0.020605  -0.001004  -0.008206
    10  H    0.000460  -0.020759  -0.020605   0.490961   0.001604   0.006411
    11  H   -0.000572  -0.002445  -0.001004   0.001604   0.492846  -0.023737
    12  H    0.000364   0.002772  -0.008206   0.006411  -0.023737   0.500243
    13  H    0.000545   0.000484   0.003021  -0.003952  -0.023034  -0.022543
    14  H   -0.000574  -0.001036  -0.002443   0.001601  -0.009885   0.001063
    15  H    0.000362  -0.008158   0.002766   0.006421   0.001069  -0.001198
    16  H    0.000544   0.003052   0.000470  -0.003955   0.004998  -0.001196
    17  H    0.005496  -0.003347   0.009017   0.000998  -0.010155   0.005867
    18  H    0.005492   0.009005  -0.003344   0.000981   0.005447  -0.000345
    19  H   -0.060551  -0.010529   0.006292   0.002673  -0.002987   0.001916
    20  H   -0.060450   0.006334  -0.010422   0.002616   0.007505  -0.006884
    21  H    0.252309  -0.000540  -0.000541  -0.000220  -0.000058  -0.000147
              13         14         15         16         17         18
     1  C   -0.001624   0.015230   0.011049  -0.001690   0.015003   0.014650
     2  P   -0.060934  -0.045028  -0.133353  -0.060988  -0.140032  -0.139442
     3  C    0.384091  -0.004716   0.016125  -0.009658   0.055149  -0.032243
     4  C   -0.009643   0.351301   0.387989   0.384133  -0.032113   0.055118
     5  C    0.010432   0.028374   0.024488   0.010484   0.402598   0.402869
     6  C    0.002031  -0.021723  -0.001962   0.002044  -0.001807  -0.002168
     7  O    0.000545  -0.000574   0.000362   0.000544   0.005496   0.005492
     8  H    0.000484  -0.001036  -0.008158   0.003052  -0.003347   0.009005
     9  H    0.003021  -0.002443   0.002766   0.000470   0.009017  -0.003344
    10  H   -0.003952   0.001601   0.006421  -0.003955   0.000998   0.000981
    11  H   -0.023034  -0.009885   0.001069   0.004998  -0.010155   0.005447
    12  H   -0.022543   0.001063  -0.001198  -0.001196   0.005867  -0.000345
    13  H    0.498452   0.004991  -0.001197  -0.004343   0.001386  -0.001464
    14  H    0.004991   0.492820  -0.023695  -0.022996   0.005429  -0.010146
    15  H   -0.001197  -0.023695   0.500188  -0.022576  -0.000335   0.005855
    16  H   -0.004343  -0.022996  -0.022576   0.498398  -0.001451   0.001362
    17  H    0.001386   0.005429  -0.000335  -0.001451   0.511451  -0.051522
    18  H   -0.001464  -0.010146   0.005855   0.001362  -0.051522   0.511452
    19  H    0.001579   0.007488  -0.006834  -0.000962   0.045667  -0.063070
    20  H   -0.000983  -0.002977   0.001898   0.001565  -0.063032   0.045682
    21  H   -0.000020  -0.000058  -0.000149  -0.000020   0.001826   0.001815
              19         20         21
     1  C    0.047892   0.046780  -0.013889
     2  P   -0.097371  -0.096172   0.030945
     3  C    0.024303  -0.032327  -0.001256
     4  C   -0.032263   0.024269  -0.001257
     5  C    0.034111   0.034717  -0.026021
     6  C    0.317239   0.316493   0.035338
     7  O   -0.060551  -0.060450   0.252309
     8  H   -0.010529   0.006334  -0.000540
     9  H    0.006292  -0.010422  -0.000541
    10  H    0.002673   0.002616  -0.000220
    11  H   -0.002987   0.007505  -0.000058
    12  H    0.001916  -0.006884  -0.000147
    13  H    0.001579  -0.000983  -0.000020
    14  H    0.007488  -0.002977  -0.000058
    15  H   -0.006834   0.001898  -0.000149
    16  H   -0.000962   0.001565  -0.000020
    17  H    0.045667  -0.063032   0.001826
    18  H   -0.063070   0.045682   0.001815
    19  H    0.784758  -0.177364  -0.005285
    20  H   -0.177364   0.784848  -0.005328
    21  H   -0.005285  -0.005328   0.462670
 Mulliken charges:
               1
     1  C   -0.187825
     2  P   -0.344645
     3  C   -0.505793
     4  C   -0.505597
     5  C    0.199798
     6  C   -0.625004
     7  O   -0.235388
     8  H    0.205040
     9  H    0.204697
    10  H    0.268278
    11  H    0.237114
    12  H    0.241249
    13  H    0.222725
    14  H    0.236978
    15  H    0.241246
    16  H    0.222783
    17  H    0.243908
    18  H    0.244017
    19  H    0.183299
    20  H    0.183232
    21  H    0.269887
 Sum of Mulliken charges =   1.00000
 Mulliken charges with hydrogens summed into heavy atoms:
               1
     1  C    0.490189
     2  P   -0.344645
     3  C    0.195295
     4  C    0.195411
     5  C    0.687723
     6  C   -0.258472
     7  O    0.034499
 Electronic spatial extent (au):  <R**2>=           1231.2749
 Charge=              1.0000 electrons
 Dipole moment (field-independent basis, Debye):
    X=              3.6176    Y=              1.6501    Z=             -0.0343  Tot=              3.9763
 Quadrupole moment (field-independent basis, Debye-Ang):
   XX=            -36.6001   YY=            -43.8183   ZZ=            -43.4343
   XY=             -6.6917   XZ=              0.1390   YZ=              0.0143
 Traceless Quadrupole moment (field-independent basis, Debye-Ang):
   XX=              4.6842   YY=             -2.5341   ZZ=             -2.1501
   XY=             -6.6917   XZ=              0.1390   YZ=              0.0143
 Octapole moment (field-independent basis, Debye-Ang**2):
  XXX=            -10.5814  YYY=              2.2182  ZZZ=              0.1367  XYY=              3.6417
  XXY=             21.6219  XXZ=             -0.4352  XZZ=              7.0095  YZZ=             -2.2620
  YYZ=             -0.1334  XYZ=              0.0760
 Hexadecapole moment (field-independent basis, Debye-Ang**3):
 XXXX=           -772.4308 YYYY=           -281.0746 ZZZZ=           -270.4279 XXXY=            -78.7735
 XXXZ=              1.6074 YYYX=             -1.5073 YYYZ=              0.0030 ZZZX=              0.4442
 ZZZY=              0.1296 XXYY=           -201.0376 XXZZ=           -198.4138 YYZZ=            -92.9742
 XXYZ=              0.0459 YYXZ=             -0.2628 ZZXY=             -7.1551
 N-N= 4.112897663540D+02 E-N=-2.259533847306D+03  KE= 6.131594984678D+02

 **********************************************************************

            Electrostatic Properties Using The SCF Density

 **********************************************************************

       Atomic Center    1 is at   0.649320  1.833039 -0.037735
       Atomic Center    2 is at   0.839330 -0.020860  0.000342
       Atomic Center    3 is at   1.776575 -0.581432 -1.510229
       Atomic Center    4 is at   1.777960 -0.517004  1.532436
       Atomic Center    5 is at  -0.845707 -0.817652  0.016889
       Atomic Center    6 is at  -1.919099  0.262563 -0.005198
       Atomic Center    7 is at  -3.186493 -0.336740  0.007247
       Atomic Center    8 is at   0.089688  2.167758  0.864231
       Atomic Center    9 is at   0.088861  2.129286 -0.952553
       Atomic Center   10 is at   1.655461  2.308805 -0.047615
       Atomic Center   11 is at   1.890031 -1.688402 -1.487493
       Atomic Center   12 is at   1.216116 -0.285184 -2.425047
       Atomic Center   13 is at   2.782716 -0.105666 -1.520110
       Atomic Center   14 is at   1.891979 -1.623894  1.556148
       Atomic Center   15 is at   1.218008 -0.182854  2.434415
       Atomic Center   16 is at   2.783859 -0.040746  1.521567
       Atomic Center   17 is at  -0.956572 -1.468456 -0.879175
       Atomic Center   18 is at  -0.956494 -1.431728  0.938521
       Atomic Center   19 is at  -1.808234  0.913367  0.890866
       Atomic Center   20 is at  -1.808312  0.876639 -0.926831
       Atomic Center   21 is at  -3.819406  0.360814 -0.007022
 -----------------------------------------------------------------

              Electrostatic Properties (Atomic Units)

 -----------------------------------------------------------------
    Center     Electric         -------- Electric Field --------
               Potential          X             Y             Z
 -----------------------------------------------------------------
    1 Atom    -14.576348      0.000860     -0.000406     -0.000002
    2 Atom    -53.930405     -0.000372     -0.000846      0.000025
    3 Atom    -14.578033     -0.000511      0.000386      0.001034
    4 Atom    -14.578049     -0.000521      0.000327     -0.001049
    5 Atom    -14.582631     -0.001345     -0.000319      0.000003
    6 Atom    -14.559976      0.005336      0.007293     -0.000135
    7 Atom    -22.231795     -0.008635     -0.051064      0.001049
    8 Atom     -0.913895     -0.000313      0.002471      0.002396
    9 Atom     -0.913918     -0.000256      0.002476     -0.002490
   10 Atom     -0.914903      0.003404      0.002045     -0.000094
   11 Atom     -0.915974      0.000470     -0.003987     -0.000220
   12 Atom     -0.915818     -0.001655      0.000826     -0.003664
   13 Atom     -0.916846      0.003876      0.001286     -0.001019
   14 Atom     -0.916023      0.000484     -0.003974      0.000407
   15 Atom     -0.915831     -0.001654      0.000978      0.003626
   16 Atom     -0.916824      0.003871      0.001335      0.000945
   17 Atom     -0.927612      0.000629     -0.005462     -0.002587
   18 Atom     -0.927597      0.000614     -0.005328      0.002814
   19 Atom     -0.965007      0.000640      0.006845      0.005038
   20 Atom     -0.964961      0.000625      0.006596     -0.005321
   21 Atom     -0.868454     -0.039381      0.032308     -0.000660
 -----------------------------------------------------------------
 -----------------------------------------------------
    Center         ---- Electric Field Gradient ----
                     XX            YY            ZZ
 -----------------------------------------------------
    1 Atom     -500.297085   -500.597900   -500.299804
    2 Atom    -8862.836751  -8862.914302  -8862.896619
    3 Atom     -500.387198   -500.339509   -500.515502
    4 Atom     -500.387492   -500.333185   -500.521266
    5 Atom     -500.681038   -500.488603   -500.388204
    6 Atom     -500.590845   -500.303726   -500.142689
    7 Atom    -1238.461995  -1236.778486  -1234.722640
    8 Atom       -1.706224     -1.645250     -1.870250
    9 Atom       -1.706566     -1.638133     -1.877283
   10 Atom       -1.935246     -1.676378     -1.599466
   11 Atom       -1.603497     -1.995091     -1.605805
   12 Atom       -1.710900     -1.630303     -1.867312
   13 Atom       -1.926587     -1.678732     -1.608107
   14 Atom       -1.603603     -1.995633     -1.605337
   15 Atom       -1.710721     -1.637943     -1.859850
   16 Atom       -1.926379     -1.678283     -1.608646
   17 Atom       -1.628252     -1.752786     -1.879227
   18 Atom       -1.628172     -1.737937     -1.893932
   19 Atom       -1.728565     -1.839509     -1.954601
   20 Atom       -1.728535     -1.824429     -1.969603
   21 Atom       -1.958020     -2.010335     -1.526909
 -----------------------------------------------------
 -----------------------------------------------------
    Center         ---- Electric Field Gradient ----
                     XY            XZ            YZ
 -----------------------------------------------------
    1 Atom        0.028897     -0.000664      0.006040
    2 Atom        0.018043     -0.000210      0.000727
    3 Atom        0.048362      0.123263     -0.075986
    4 Atom        0.043046     -0.125345      0.068097
    5 Atom       -0.118920      0.002325      0.002037
    6 Atom       -0.118618      0.002432      0.003344
    7 Atom        0.105132     -0.001573      0.042393
    8 Atom        0.056417      0.165401     -0.090649
    9 Atom        0.049464     -0.167766      0.080808
   10 Atom       -0.146837      0.003081      0.001609
   11 Atom        0.037130      0.003236      0.014361
   12 Atom        0.059875     -0.164101      0.086768
   13 Atom       -0.156513      0.000237     -0.005298
   14 Atom        0.037166     -0.004795      0.002016
   15 Atom        0.066609      0.161377     -0.096386
   16 Atom       -0.156509      0.006584      0.008370
   17 Atom       -0.018060     -0.023588     -0.185475
   18 Atom       -0.017082      0.024295      0.179768
   19 Atom       -0.026339     -0.034343     -0.188336
   20 Atom       -0.024916      0.035360      0.183077
   21 Atom        0.384908     -0.007862      0.009900
 -----------------------------------------------------
 -----------------------------------------------------
    Center         ---- Electric Field Gradient ----
                   ----       Eigenvalues       ----
 -----------------------------------------------------
    1 Atom     -500.600773   -500.299682   -500.294332
    2 Atom    -8862.918320  -8862.896593  -8862.832759
    3 Atom     -500.619293   -500.313512   -500.309405
    4 Atom     -500.619139   -500.313428   -500.309376
    5 Atom     -500.737815   -500.431866   -500.388162
    6 Atom     -500.633534   -500.261107   -500.142620
    7 Atom    -1238.468539  -1236.772815  -1234.721766
    8 Atom       -2.004581     -1.613526     -1.603617
    9 Atom       -2.004648     -1.613642     -1.603692
   10 Atom       -2.001582     -1.610076     -1.599432
   11 Atom       -1.999078     -1.607933     -1.597381
   12 Atom       -2.000837     -1.609259     -1.598419
   13 Atom       -2.002306     -1.611053     -1.600066
   14 Atom       -1.999141     -1.607990     -1.597443
   15 Atom       -2.000839     -1.609255     -1.598420
   16 Atom       -2.002271     -1.611012     -1.600024
   17 Atom       -2.014244     -1.626119     -1.619902
   18 Atom       -2.014177     -1.626038     -1.619827
   19 Atom       -2.099042     -1.723534     -1.700100
   20 Atom       -2.099006     -1.723509     -1.700051
   21 Atom       -2.370161     -1.598396     -1.526706
 -----------------------------------------------------
 -----------------------------------------------------
    Center         ---- Electric Field Gradient ----
                       ( tensor representation )
                   3XX-RR        3YY-RR        3ZZ-RR
 -----------------------------------------------------
    1 Atom        0.101178     -0.199637      0.098459
    2 Atom        0.045806     -0.031744     -0.014062
    3 Atom        0.026871      0.074561     -0.101432
    4 Atom        0.026489      0.080795     -0.107285
    5 Atom       -0.161756      0.030679      0.131078
    6 Atom       -0.245092      0.042027      0.203064
    7 Atom       -1.807621     -0.124112      1.931734
    8 Atom        0.034351      0.095325     -0.129676
    9 Atom        0.034095      0.102528     -0.136622
   10 Atom       -0.198216      0.060652      0.137564
   11 Atom        0.131300     -0.260293      0.128993
   12 Atom        0.025272      0.105869     -0.131141
   13 Atom       -0.188778      0.059077      0.129702
   14 Atom        0.131254     -0.260775      0.129521
   15 Atom        0.025450      0.098229     -0.123678
   16 Atom       -0.188610      0.059486      0.129123
   17 Atom        0.125170      0.000636     -0.125806
   18 Atom        0.125175      0.015410     -0.140585
   19 Atom        0.112326      0.001383     -0.113709
   20 Atom        0.112321      0.016427     -0.128747
   21 Atom       -0.126265     -0.178581      0.304846
 -----------------------------------------------------
 -----------------------------------------------------
    Center         ---- Electric Field Gradient ----
                       ( tensor representation )
                   ----       Eigenvalues       ----
 -----------------------------------------------------
    1 Atom       -0.202511      0.098580      0.103930
    2 Atom       -0.035763     -0.014036      0.049799
    3 Atom       -0.205223      0.100558      0.104665
    4 Atom       -0.205158      0.100553      0.104605
    5 Atom       -0.218534      0.087415      0.131119
    6 Atom       -0.287780      0.084647      0.203134
    7 Atom       -1.814166     -0.118442      1.932608
    8 Atom       -0.264006      0.127048      0.136958
    9 Atom       -0.263988      0.127019      0.136969
   10 Atom       -0.264552      0.126954      0.137598
   11 Atom       -0.264281      0.126864      0.137416
   12 Atom       -0.264665      0.126913      0.137753
   13 Atom       -0.264498      0.126756      0.137742
   14 Atom       -0.264283      0.126868      0.137415
   15 Atom       -0.264668      0.126916      0.137752
   16 Atom       -0.264502      0.126757      0.137745
   17 Atom       -0.260823      0.127303      0.133520
   18 Atom       -0.260830      0.127309      0.133520
   19 Atom       -0.258150      0.117358      0.140792
   20 Atom       -0.258151      0.117347      0.140804
   21 Atom       -0.538407      0.233358      0.305049
 -----------------------------------------------------
 Calling FoFJK, ICntrl=      2127 FMM=F ISym2X=0 I1Cent= 0 IOpClX= 0 NMat=1 NMatS=1 NMatT=0.
 ***** Axes restored to original set *****
 -------------------------------------------------------------------
 Center     Atomic                   Forces (Hartrees/Bohr)
 Number     Number              X              Y              Z
 -------------------------------------------------------------------
      1        6           0.001940383   -0.001441686    0.002492451
      2       15           0.004385779   -0.002406967    0.006373909
      3        6          -0.003672231    0.001312907    0.001201484
      4        6           0.001980146    0.002738358   -0.002223663
      5        6           0.002349928   -0.006509577    0.000973614
      6        6          -0.004812042    0.014512769   -0.001403589
      7        8           0.011907891   -0.020231022    0.010788872
      8        1           0.014654533   -0.000572687    0.001043453
      9        1          -0.004774023   -0.005629839    0.012750413
     10        1          -0.004741993   -0.006484721   -0.010940322
     11        1          -0.004088863    0.012851616   -0.000104748
     12        1          -0.005235138   -0.005908207    0.010862020
     13        1          -0.004790746   -0.005919779   -0.011085669
     14        1          -0.003270030    0.013074686   -0.000584828
     15        1           0.013387934   -0.000915098   -0.000265660
     16        1          -0.005144223   -0.006008422   -0.010877391
     17        1          -0.008982896    0.002468243    0.009060954
     18        1           0.010205465    0.007674932   -0.002455473
     19        1           0.008244630   -0.000472944   -0.004314835
     20        1          -0.006705971   -0.004541111    0.004619869
     21        1          -0.012838533    0.012408548   -0.015910861
 -------------------------------------------------------------------
 Cartesian Forces:  Max     0.020231022 RMS     0.007817395

 GradGradGradGradGradGradGradGradGradGradGradGradGradGradGradGradGradGrad
 Berny optimization.
 FormGI is forming the generalized inverse of G from B-inverse, IUseBI=4.
 Internal  Forces:  Max     0.024021557 RMS     0.007056052
 Search for a local minimum.
 Step number   1 out of a maximum of  115
 All quantities printed in internal units (Hartrees-Bohrs-Radians)
 Mixed Optimization -- RFO/linear search
 Second derivative matrix not updated -- first step.
 ITU=  0
     Eigenvalues ---    0.00318   0.00318   0.00318   0.00318   0.00462
     Eigenvalues ---    0.01665   0.03957   0.04803   0.04804   0.04809
     Eigenvalues ---    0.05006   0.05315   0.05771   0.05771   0.05771
     Eigenvalues ---    0.05775   0.05775   0.05775   0.05972   0.07739
     Eigenvalues ---    0.11359   0.11745   0.13759   0.14415   0.14429
     Eigenvalues ---    0.16000   0.16000   0.16000   0.16000   0.16000
     Eigenvalues ---    0.16000   0.16000   0.16000   0.16000   0.16000
     Eigenvalues ---    0.21660   0.21660   0.21660   0.21660   0.21952
     Eigenvalues ---    0.22077   0.30080   0.32284   0.32284   0.32284
     Eigenvalues ---    0.32284   0.32284   0.32284   0.32284   0.32284
     Eigenvalues ---    0.32285   0.32285   0.32285   0.32285   0.32285
     Eigenvalues ---    0.45291   0.59532
 RFO step:  Lambda=-1.92885834D-02 EMin= 3.17648201D-03
 Linear search not attempted -- first point.
 Iteration  1 RMS(Cart)=  0.12608717 RMS(Int)=  0.00533508
 Iteration  2 RMS(Cart)=  0.00806951 RMS(Int)=  0.00036372
 Iteration  3 RMS(Cart)=  0.00005135 RMS(Int)=  0.00036300
 Iteration  4 RMS(Cart)=  0.00000001 RMS(Int)=  0.00036300
 Variable       Old X    -DE/DX   Delta X   Delta X   Delta X     New X
                                 (Linear)    (Quad)   (Total)
    R1        3.52245  -0.01548   0.00000  -0.06562  -0.06562   3.45683
    R2        2.10326  -0.01465   0.00000  -0.04283  -0.04283   2.06043
    R3        2.10326  -0.01467   0.00000  -0.04289  -0.04289   2.06037
    R4        2.10327  -0.01356   0.00000  -0.03964  -0.03964   2.06363
    R5        3.52245  -0.01791   0.00000  -0.07594  -0.07594   3.44651
    R6        3.52245  -0.01791   0.00000  -0.07590  -0.07590   3.44655
    R7        3.52245  -0.00323   0.00000  -0.01370  -0.01370   3.50875
    R8        2.10327  -0.01347   0.00000  -0.03938  -0.03938   2.06389
    R9        2.10327  -0.01342   0.00000  -0.03923  -0.03923   2.06403
   R10        2.10327  -0.01345   0.00000  -0.03931  -0.03931   2.06396
   R11        2.10326  -0.01348   0.00000  -0.03939  -0.03939   2.06388
   R12        2.10326  -0.01342   0.00000  -0.03922  -0.03922   2.06404
   R13        2.10327  -0.01345   0.00000  -0.03930  -0.03930   2.06396
   R14        2.87805   0.00663   0.00000   0.02072   0.02072   2.89877
   R15        2.10326  -0.01260   0.00000  -0.03683  -0.03683   2.06643
   R16        2.10326  -0.01263   0.00000  -0.03690  -0.03690   2.06636
   R17        2.64940   0.00800   0.00000   0.01694   0.01694   2.66634
   R18        2.10326  -0.00872   0.00000  -0.02548  -0.02548   2.07778
   R19        2.10327  -0.00874   0.00000  -0.02556  -0.02556   2.07771
   R20        1.78012   0.02322   0.00000   0.03778   0.03778   1.81790
    A1        1.91114   0.00103   0.00000   0.00728   0.00723   1.91836
    A2        1.91012   0.00127   0.00000   0.00863   0.00858   1.91870
    A3        1.91047  -0.00150   0.00000  -0.01149  -0.01148   1.89899
    A4        1.91012  -0.00010   0.00000   0.00569   0.00558   1.91570
    A5        1.91047  -0.00028   0.00000  -0.00468  -0.00467   1.90580
    A6        1.91148  -0.00041   0.00000  -0.00541  -0.00540   1.90609
    A7        1.91114  -0.00255   0.00000  -0.01821  -0.01852   1.89261
    A8        1.91012  -0.00250   0.00000  -0.01787  -0.01818   1.89194
    A9        1.91047   0.00669   0.00000   0.06060   0.06077   1.97124
   A10        1.91012   0.00219   0.00000  -0.00628  -0.00668   1.90344
   A11        1.91047  -0.00190   0.00000  -0.00900  -0.00900   1.90147
   A12        1.91148  -0.00194   0.00000  -0.00927  -0.00927   1.90221
   A13        1.91114  -0.00093   0.00000  -0.00553  -0.00553   1.90560
   A14        1.91012  -0.00040   0.00000  -0.00249  -0.00250   1.90762
   A15        1.91047   0.00054   0.00000   0.00363   0.00364   1.91411
   A16        1.91012   0.00046   0.00000   0.00134   0.00132   1.91144
   A17        1.91047   0.00029   0.00000   0.00220   0.00220   1.91267
   A18        1.91148   0.00004   0.00000   0.00085   0.00085   1.91234
   A19        1.91114  -0.00091   0.00000  -0.00535  -0.00535   1.90578
   A20        1.91012  -0.00038   0.00000  -0.00240  -0.00241   1.90771
   A21        1.91047   0.00051   0.00000   0.00341   0.00341   1.91388
   A22        1.91012   0.00045   0.00000   0.00139   0.00137   1.91150
   A23        1.91047   0.00029   0.00000   0.00216   0.00216   1.91263
   A24        1.91148   0.00004   0.00000   0.00080   0.00080   1.91228
   A25        1.91113   0.02402   0.00000   0.11186   0.11143   2.02256
   A26        1.91012  -0.00802   0.00000  -0.03588  -0.03748   1.87264
   A27        1.91047  -0.00801   0.00000  -0.03582  -0.03739   1.87308
   A28        1.91012  -0.00528   0.00000  -0.00718  -0.00685   1.90327
   A29        1.91047  -0.00532   0.00000  -0.00752  -0.00719   1.90328
   A30        1.91148   0.00262   0.00000  -0.02540  -0.02694   1.88455
   A31        1.91114  -0.01646   0.00000  -0.06807  -0.06783   1.84331
   A32        1.91012   0.00414   0.00000   0.01582   0.01601   1.92613
   A33        1.91047   0.00410   0.00000   0.01541   0.01559   1.92606
   A34        1.91012   0.00594   0.00000   0.02685   0.02683   1.93695
   A35        1.91047   0.00593   0.00000   0.02655   0.02652   1.93698
   A36        1.91148  -0.00365   0.00000  -0.01660  -0.01697   1.89451
   A37        1.86576   0.01018   0.00000   0.05680   0.05680   1.92255
    D1        3.14159   0.00085   0.00000   0.02309   0.02299  -3.11860
    D2       -1.04783   0.00044   0.00000  -0.00667  -0.00651  -1.05434
    D3        1.04719   0.00063   0.00000   0.00813   0.00816   1.05535
    D4        1.04783  -0.00044   0.00000   0.00639   0.00622   1.05405
    D5        3.14159  -0.00085   0.00000  -0.02338  -0.02328   3.11831
    D6       -1.04657  -0.00066   0.00000  -0.00858  -0.00861  -1.05518
    D7       -1.04719   0.00021   0.00000   0.01477   0.01464  -1.03255
    D8        1.04657  -0.00020   0.00000  -0.01500  -0.01487   1.03170
    D9       -3.14159  -0.00001   0.00000  -0.00020  -0.00019   3.14140
   D10        3.14159  -0.00280   0.00000  -0.03022  -0.03017   3.11142
   D11       -1.04783  -0.00305   0.00000  -0.03349  -0.03343  -1.08127
   D12        1.04719  -0.00292   0.00000  -0.03175  -0.03170   1.01549
   D13        1.04783   0.00047   0.00000   0.00664   0.00664   1.05448
   D14        3.14159   0.00022   0.00000   0.00337   0.00338  -3.13821
   D15       -1.04657   0.00036   0.00000   0.00511   0.00512  -1.04145
   D16       -1.04719   0.00267   0.00000   0.02734   0.02728  -1.01991
   D17        1.04657   0.00242   0.00000   0.02408   0.02402   1.07059
   D18       -3.14159   0.00256   0.00000   0.02581   0.02576  -3.11583
   D19       -3.14159   0.00282   0.00000   0.03043   0.03038  -3.11121
   D20        1.04783   0.00306   0.00000   0.03347   0.03342   1.08125
   D21       -1.04719   0.00293   0.00000   0.03188   0.03183  -1.01536
   D22       -1.04721  -0.00048   0.00000  -0.00663  -0.00663  -1.05384
   D23       -3.14097  -0.00025   0.00000  -0.00359  -0.00360   3.13862
   D24        1.04719  -0.00037   0.00000  -0.00517  -0.00518   1.04201
   D25        1.04719  -0.00266   0.00000  -0.02718  -0.02711   1.02008
   D26       -1.04657  -0.00242   0.00000  -0.02413  -0.02408  -1.07065
   D27       -3.14159  -0.00255   0.00000  -0.02572  -0.02567   3.11593
   D28        0.00000  -0.00001   0.00000   0.00021   0.00022   0.00022
   D29        2.09376   0.00330   0.00000   0.03786   0.03708   2.13084
   D30       -2.09440  -0.00330   0.00000  -0.03714  -0.03635  -2.13075
   D31       -2.09481   0.00017   0.00000  -0.00908  -0.00916  -2.10397
   D32       -0.00105   0.00349   0.00000   0.02857   0.02771   0.02666
   D33        2.09397  -0.00312   0.00000  -0.04643  -0.04572   2.04826
   D34        2.09419  -0.00016   0.00000   0.00980   0.00988   2.10407
   D35       -2.09524   0.00316   0.00000   0.04746   0.04674  -2.04850
   D36       -0.00021  -0.00344   0.00000  -0.02754  -0.02668  -0.02690
   D37        3.14159  -0.00002   0.00000  -0.00016  -0.00015   3.14145
   D38       -1.04783  -0.00028   0.00000   0.00078   0.00075  -1.04709
   D39        1.04719   0.00029   0.00000  -0.00043  -0.00040   1.04680
   D40        1.04783  -0.00165   0.00000  -0.02024  -0.02067   1.02716
   D41        3.14159  -0.00191   0.00000  -0.01930  -0.01978   3.12181
   D42       -1.04657  -0.00134   0.00000  -0.02051  -0.02092  -1.06749
   D43       -1.04719   0.00162   0.00000   0.01987   0.02031  -1.02688
   D44        1.04657   0.00136   0.00000   0.02080   0.02120   1.06777
   D45       -3.14159   0.00193   0.00000   0.01960   0.02006  -3.12153
   D46       -3.14159   0.00002   0.00000   0.00016   0.00016  -3.14143
   D47        1.04783   0.00139   0.00000   0.00599   0.00640   1.05423
   D48       -1.04719  -0.00141   0.00000  -0.00638  -0.00679  -1.05398
         Item               Value     Threshold  Converged?
 Maximum Force            0.024022     0.000450     NO 
 RMS     Force            0.007056     0.000300     NO 
 Maximum Displacement     0.610379     0.001800     NO 
 RMS     Displacement     0.128580     0.001200     NO 
 Predicted change in Energy=-1.050285D-02
 GradGradGradGradGradGradGradGradGradGradGradGradGradGradGradGradGradGrad

                          Input orientation:                          
 ---------------------------------------------------------------------
 Center     Atomic      Atomic             Coordinates (Angstroms)
 Number     Number       Type             X           Y           Z
 ---------------------------------------------------------------------
      1          6           0       -0.315449    1.632769    0.922902
      2         15           0        0.081031   -0.147943    0.788290
      3          6           0        1.895105   -0.335129    0.768548
      4          6           0       -0.589646   -0.999553    2.255029
      5          6           0       -0.622661   -0.932620   -0.740310
      6          6           0       -1.422432   -0.003603   -1.662447
      7          8           0       -1.848915   -0.811229   -2.737935
      8          1           0       -1.396367    1.770783    0.960281
      9          1           0        0.095538    2.170736    0.068243
     10          1           0        0.128373    2.023793    1.840855
     11          1           0        2.145798   -1.396994    0.719439
     12          1           0        2.301295    0.176573   -0.106757
     13          1           0        2.319464    0.099693    1.676156
     14          1           0       -0.333079   -2.059879    2.203176
     15          1           0       -1.675969   -0.887336    2.272431
     16          1           0       -0.162318   -0.563321    3.160566
     17          1           0        0.213587   -1.358884   -1.301334
     18          1           0       -1.266430   -1.755271   -0.417063
     19          1           0       -2.281911    0.421885   -1.124684
     20          1           0       -0.788392    0.821654   -2.017116
     21          1           0       -2.361585   -0.288562   -3.361970
 ---------------------------------------------------------------------
                    Distance matrix (angstroms):
                    1          2          3          4          5
     1  C    0.000000
     2  P    1.829275   0.000000
     3  C    2.963612   1.823813   0.000000
     4  C    2.962915   1.823834   2.970702   0.000000
     5  C    3.072763   1.856749   2.995462   2.996269   0.000000
     6  C    3.253791   2.878775   4.126221   4.126993   1.533963
     7  O    4.661155   4.074175   5.151678   5.152758   2.347113
     8  H    1.090335   2.427714   3.912214   3.162584   3.286186
     9  H    1.090303   2.427952   3.163578   3.911808   3.286394
    10  H    1.092024   2.413829   3.136191   3.134918   3.995853
    11  H    3.908784   2.414153   1.092161   3.162064   3.163997
    12  H    3.166710   2.415780   1.092240   3.913929   3.190802
    13  H    3.140139   2.420787   1.092200   3.163282   3.944753
    14  H    3.908332   2.414310   3.161918   1.092157   3.165230
    15  H    3.165940   2.415870   3.913971   1.092243   3.191883
    16  H    3.139012   2.420631   3.163354   1.092202   3.945267
    17  H    3.765247   2.418776   2.856569   3.663607   1.093508
    18  H    3.765459   2.419097   3.663029   2.858186   1.093472
    19  H    3.086392   3.093164   4.648102   4.038156   2.176128
    20  H    3.086307   3.092946   4.037230   4.648389   2.176047
    21  H    5.122335   4.817759   5.931506   5.932619   3.211195
                    6          7          8          9         10
     6  C    0.000000
     7  O    1.410964   0.000000
     8  H    3.166675   4.533032   0.000000
     9  H    3.166587   4.532951   1.783669   0.000000
    10  H    4.334566   5.736927   1.778836   1.778995   0.000000
    11  H    4.510786   5.315476   4.758125   4.166092   4.126665
    12  H    4.039651   5.012294   4.165667   2.978703   3.453549
    13  H    5.015847   6.139166   4.136716   3.438088   2.920644
    14  H    4.511984   5.317091   4.165254   4.758125   4.125602
    15  H    4.040858   5.013928   2.977501   4.165152   3.452040
    16  H    5.016237   6.139901   3.436885   4.135701   2.918783
    17  H    2.154936   2.572483   4.183500   3.787861   4.617696
    18  H    2.154915   2.572343   3.787746   4.183780   4.617899
    19  H    1.099515   2.076206   2.636435   3.183366   4.143670
    20  H    1.099476   2.076198   3.183610   2.636300   4.143614
    21  H    1.962546   0.961993   4.884097   4.883848   6.214199
                   11         12         13         14         15
    11  H    0.000000
    12  H    1.784066   0.000000
    13  H    1.784808   1.784662   0.000000
    14  H    2.964072   4.156613   3.460850   0.000000
    15  H    4.156614   4.755110   4.158516   1.784099   0.000000
    16  H    3.461432   4.158393   2.966867   1.784781   1.784632
    17  H    2.796142   2.853623   3.927799   3.615498   4.069960
    18  H    3.614319   4.069026   4.547647   2.798139   2.855593
    19  H    5.129689   4.701290   5.396402   4.586038   3.690747
    20  H    4.584823   3.689413   4.880599   5.130440   4.701985
    21  H    6.180860   5.705718   6.888082   6.182496   5.707458
                   16         17         18         19         20
    16  H    0.000000
    17  H    4.547832   0.000000
    18  H    3.929280   1.769042   0.000000
    19  H    4.881257   3.070807   2.504383   0.000000
    20  H    5.396158   2.504207   3.070706   1.785175   0.000000
    21  H    6.888814   3.467467   3.467431   2.348731   2.348649
                   21
    21  H    0.000000
 Stoichiometry    C5H14OP(1+)
 Framework group  C1[X(C5H14OP)]
 Deg. of freedom    57
 Full point group                 C1      NOp   1
 Largest Abelian subgroup         C1      NOp   1
 Largest concise Abelian subgroup C1      NOp   1
                         Standard orientation:                         
 ---------------------------------------------------------------------
 Center     Atomic      Atomic             Coordinates (Angstroms)
 Number     Number       Type             X           Y           Z
 ---------------------------------------------------------------------
      1          6           0        0.924790    1.803850   -0.008845
      2         15           0        0.847292   -0.023761    0.000056
      3          6           0        1.708988   -0.644901   -1.482496
      4          6           0        1.710523   -0.629346    1.488165
      5          6           0       -0.891695   -0.674475    0.003561
      6          6           0       -2.002549    0.383362   -0.001662
      7          8           0       -3.214683   -0.338815    0.001944
      8          1           0        0.435842    2.200638    0.881278
      9          1           0        0.435427    2.192303   -0.902372
     10          1           0        1.972512    2.111734   -0.010350
     11          1           0        1.696779   -1.736957   -1.473534
     12          1           0        1.197082   -0.281565   -2.376323
     13          1           0        2.742007   -0.290254   -1.482931
     14          1           0        1.698974   -1.721440    1.490497
     15          1           0        1.199352   -0.257049    2.378723
     16          1           0        2.743340   -0.274132    1.483892
     17          1           0       -1.001956   -1.312155   -0.877896
     18          1           0       -1.002081   -1.303545    0.891124
     19          1           0       -1.923947    1.024993    0.887756
     20          1           0       -1.923924    1.016074   -0.897397
     21          1           0       -3.961664    0.267353   -0.001192
 ---------------------------------------------------------------------
 Rotational constants (GHZ):      3.1206172      1.1057518      1.0915132
 Standard basis: 6-311++G(d,p) (5D, 7F)
 There are   267 symmetry adapted cartesian basis functions of A   symmetry.
 There are   260 symmetry adapted basis functions of A   symmetry.
   260 basis functions,   392 primitive gaussians,   267 cartesian basis functions
    33 alpha electrons       33 beta electrons
       nuclear repulsion energy       412.9796984333 Hartrees.
 NAtoms=   21 NActive=   21 NUniq=   21 SFac= 1.00D+00 NAtFMM=   60 NAOKFM=F Big=F
 Integral buffers will be    131072 words long.
 Raffenetti 2 integral format.
 Two-electron integral symmetry is turned on.
 One-electron integrals computed using PRISM.
 NBasis=   260 RedAO= T EigKep=  1.15D-05  NBF=   260
 NBsUse=   260 1.00D-06 EigRej= -1.00D+00 NBFU=   260
 Initial guess from the checkpoint file:  "Anth_375.chk"
 B after Tr=     0.000000    0.000000    0.000000
         Rot=    0.999687   -0.007887    0.000296    0.023747 Ang=  -2.87 deg.
 ExpMin= 3.48D-02 ExpMax= 7.75D+04 ExpMxC= 2.65D+03 IAcc=3 IRadAn=         5 AccDes= 0.00D+00
 Harris functional with IExCor=  402 and IRadAn=       5 diagonalized for initial guess.
 HarFok:  IExCor=  402 AccDes= 0.00D+00 IRadAn=         5 IDoV= 1 UseB2=F ITyADJ=14
 ICtDFT=  3500011 ScaDFX=  1.000000  1.000000  1.000000  1.000000
 FoFCou: FMM=F IPFlag=           0 FMFlag=      100000 FMFlg1=           0
         NFxFlg=           0 DoJE=T BraDBF=F KetDBF=T FulRan=T
         wScrn=  0.000000 ICntrl=     500 IOpCl=  0 I1Cent=   200000004 NGrid=           0
         NMat0=    1 NMatS0=      1 NMatT0=    0 NMatD0=    1 NMtDS0=    0 NMtDT0=    0
 Petite list used in FoFCou.
 Keep R1 ints in memory in canonical form, NReq=585503477.
 Requested convergence on RMS density matrix=1.00D-08 within 128 cycles.
 Requested convergence on MAX density matrix=1.00D-06.
 Requested convergence on             energy=1.00D-06.
 No special actions if energy rises.
 SCF Done:  E(RB3LYP) =  -615.437568023     A.U. after   11 cycles
            NFock= 11  Conv=0.25D-08     -V/T= 2.0031
 Calling FoFJK, ICntrl=      2127 FMM=F ISym2X=0 I1Cent= 0 IOpClX= 0 NMat=1 NMatS=1 NMatT=0.
 ***** Axes restored to original set *****
 -------------------------------------------------------------------
 Center     Atomic                   Forces (Hartrees/Bohr)
 Number     Number              X              Y              Z
 -------------------------------------------------------------------
      1        6           0.000820587   -0.006066131   -0.001324909
      2       15          -0.000326615   -0.000649699   -0.000807556
      3        6          -0.005035765    0.000410876   -0.000018115
      4        6           0.001839359    0.002226355   -0.004146469
      5        6           0.001313985    0.003887833    0.003923022
      6        6          -0.000990102    0.003128449   -0.000225613
      7        8           0.001897998   -0.003100311    0.001783107
      8        1          -0.000247761    0.000806124   -0.000082768
      9        1          -0.000254448    0.000809171   -0.000071434
     10        1          -0.000079240   -0.000017452   -0.000170707
     11        1           0.000821810    0.000616243   -0.000084189
     12        1           0.000634525   -0.000571770    0.000481842
     13        1           0.000403725   -0.000402629   -0.000624656
     14        1          -0.000631855    0.000222656    0.000785011
     15        1           0.000366814   -0.000647680    0.000639824
     16        1          -0.000528000   -0.000649460   -0.000062524
     17        1          -0.000459261   -0.000705216    0.000526237
     18        1           0.000873688   -0.000349734   -0.000260810
     19        1           0.001132956    0.000324771   -0.000231604
     20        1          -0.000762400   -0.000167989    0.000892974
     21        1          -0.000790002    0.000895592   -0.000920663
 -------------------------------------------------------------------
 Cartesian Forces:  Max     0.006066131 RMS     0.001617983

 GradGradGradGradGradGradGradGradGradGradGradGradGradGradGradGradGradGrad
 Berny optimization.
 Using GEDIIS/GDIIS optimizer.
 FormGI is forming the generalized inverse of G from B-inverse, IUseBI=4.
 Internal  Forces:  Max     0.007023790 RMS     0.001166013
 Search for a local minimum.
 Step number   2 out of a maximum of  115
 All quantities printed in internal units (Hartrees-Bohrs-Radians)
 Mixed Optimization -- RFO/linear search
 Update second derivatives using D2CorX and points    1    2
 DE= -1.01D-02 DEPred=-1.05D-02 R= 9.58D-01
 TightC=F SS=  1.41D+00  RLast= 3.02D-01 DXNew= 5.0454D-01 9.0493D-01
 Trust test= 9.58D-01 RLast= 3.02D-01 DXMaxT set to 5.05D-01
 ITU=  1  0
 Use linear search instead of GDIIS.
     Eigenvalues ---    0.00318   0.00318   0.00318   0.00318   0.00462
     Eigenvalues ---    0.01665   0.03327   0.04427   0.04826   0.05005
     Eigenvalues ---    0.05233   0.05660   0.05689   0.05763   0.05764
     Eigenvalues ---    0.05813   0.05814   0.05833   0.05945   0.08799
     Eigenvalues ---    0.10969   0.12542   0.13485   0.14344   0.14687
     Eigenvalues ---    0.15756   0.16000   0.16000   0.16000   0.16000
     Eigenvalues ---    0.16000   0.16000   0.16000   0.16000   0.16233
     Eigenvalues ---    0.18948   0.21660   0.21660   0.21774   0.21896
     Eigenvalues ---    0.23114   0.30119   0.32196   0.32284   0.32284
     Eigenvalues ---    0.32284   0.32284   0.32284   0.32284   0.32284
     Eigenvalues ---    0.32284   0.32285   0.32285   0.32285   0.33563
     Eigenvalues ---    0.45302   0.59349
 RFO step:  Lambda=-6.92858612D-04 EMin= 3.17648257D-03
 Quartic linear search produced a step of  0.09578.
 Iteration  1 RMS(Cart)=  0.01525568 RMS(Int)=  0.00014061
 Iteration  2 RMS(Cart)=  0.00019928 RMS(Int)=  0.00004781
 Iteration  3 RMS(Cart)=  0.00000001 RMS(Int)=  0.00004781
 Variable       Old X    -DE/DX   Delta X   Delta X   Delta X     New X
                                 (Linear)    (Quad)   (Total)
    R1        3.45683  -0.00453  -0.00629  -0.01910  -0.02538   3.43145
    R2        2.06043   0.00034  -0.00410   0.00363  -0.00047   2.05997
    R3        2.06037   0.00036  -0.00411   0.00368  -0.00043   2.05995
    R4        2.06363  -0.00018  -0.00380   0.00169  -0.00211   2.06152
    R5        3.44651  -0.00316  -0.00727  -0.01160  -0.01887   3.42764
    R6        3.44655  -0.00316  -0.00727  -0.01160  -0.01887   3.42768
    R7        3.50875  -0.00702  -0.00131  -0.03464  -0.03595   3.47280
    R8        2.06389  -0.00040  -0.00377   0.00091  -0.00286   2.06102
    R9        2.06403  -0.00042  -0.00376   0.00085  -0.00291   2.06112
   R10        2.06396  -0.00053  -0.00376   0.00049  -0.00327   2.06069
   R11        2.06388  -0.00040  -0.00377   0.00093  -0.00284   2.06104
   R12        2.06404  -0.00042  -0.00376   0.00084  -0.00292   2.06112
   R13        2.06396  -0.00052  -0.00376   0.00050  -0.00326   2.06070
   R14        2.89877  -0.00036   0.00198  -0.00250  -0.00051   2.89826
   R15        2.06643  -0.00035  -0.00353   0.00095  -0.00258   2.06385
   R16        2.06636  -0.00033  -0.00353   0.00101  -0.00252   2.06384
   R17        2.66634   0.00026   0.00162  -0.00036   0.00126   2.66760
   R18        2.07778  -0.00087  -0.00244  -0.00147  -0.00392   2.07387
   R19        2.07771  -0.00085  -0.00245  -0.00140  -0.00385   2.07386
   R20        1.81790   0.00151   0.00362   0.00057   0.00419   1.82210
    A1        1.91836   0.00094   0.00069   0.00623   0.00690   1.92527
    A2        1.91870   0.00093   0.00082   0.00607   0.00688   1.92558
    A3        1.89899  -0.00028  -0.00110  -0.00166  -0.00275   1.89624
    A4        1.91570  -0.00088   0.00053  -0.00547  -0.00498   1.91072
    A5        1.90580  -0.00036  -0.00045  -0.00253  -0.00297   1.90282
    A6        1.90609  -0.00037  -0.00052  -0.00271  -0.00322   1.90287
    A7        1.89261   0.00039  -0.00177   0.00561   0.00379   1.89640
    A8        1.89194   0.00044  -0.00174   0.00600   0.00421   1.89615
    A9        1.97124  -0.00090   0.00582  -0.01443  -0.00858   1.96266
   A10        1.90344  -0.00026  -0.00064   0.00266   0.00197   1.90541
   A11        1.90147   0.00019  -0.00086   0.00043  -0.00042   1.90105
   A12        1.90221   0.00015  -0.00089   0.00021  -0.00067   1.90154
   A13        1.90560   0.00103  -0.00053   0.00721   0.00666   1.91226
   A14        1.90762   0.00093  -0.00024   0.00644   0.00618   1.91380
   A15        1.91411   0.00060   0.00035   0.00411   0.00444   1.91855
   A16        1.91144  -0.00101   0.00013  -0.00735  -0.00725   1.90420
   A17        1.91267  -0.00081   0.00021  -0.00555  -0.00535   1.90732
   A18        1.91234  -0.00074   0.00008  -0.00480  -0.00473   1.90761
   A19        1.90578   0.00104  -0.00051   0.00721   0.00667   1.91246
   A20        1.90771   0.00093  -0.00023   0.00642   0.00617   1.91388
   A21        1.91388   0.00060   0.00033   0.00411   0.00442   1.91829
   A22        1.91150  -0.00101   0.00013  -0.00740  -0.00729   1.90421
   A23        1.91263  -0.00081   0.00021  -0.00554  -0.00535   1.90728
   A24        1.91228  -0.00073   0.00008  -0.00474  -0.00468   1.90760
   A25        2.02256   0.00054   0.01067  -0.00120   0.00940   2.03196
   A26        1.87264  -0.00023  -0.00359   0.00096  -0.00283   1.86982
   A27        1.87308  -0.00024  -0.00358   0.00081  -0.00297   1.87011
   A28        1.90327   0.00013  -0.00066   0.00386   0.00323   1.90650
   A29        1.90328   0.00013  -0.00069   0.00386   0.00320   1.90647
   A30        1.88455  -0.00040  -0.00258  -0.00918  -0.01192   1.87263
   A31        1.84331  -0.00458  -0.00650  -0.01900  -0.02545   1.81786
   A32        1.92613   0.00101   0.00153   0.00268   0.00427   1.93040
   A33        1.92606   0.00102   0.00149   0.00278   0.00432   1.93038
   A34        1.93695   0.00173   0.00257   0.00820   0.01074   1.94769
   A35        1.93698   0.00173   0.00254   0.00815   0.01066   1.94764
   A36        1.89451  -0.00089  -0.00163  -0.00285  -0.00457   1.88994
   A37        1.92255  -0.00019   0.00544  -0.00451   0.00093   1.92348
    D1       -3.11860  -0.00003   0.00220  -0.00436  -0.00217  -3.12077
    D2       -1.05434   0.00013  -0.00062   0.00528   0.00469  -1.04966
    D3        1.05535   0.00004   0.00078   0.00046   0.00125   1.05661
    D4        1.05405  -0.00013   0.00060  -0.00544  -0.00488   1.04917
    D5        3.11831   0.00003  -0.00223   0.00420   0.00198   3.12028
    D6       -1.05518  -0.00006  -0.00082  -0.00062  -0.00146  -1.05664
    D7       -1.03255  -0.00007   0.00140  -0.00475  -0.00337  -1.03592
    D8        1.03170   0.00009  -0.00142   0.00489   0.00349   1.03519
    D9        3.14140   0.00000  -0.00002   0.00007   0.00005   3.14145
   D10        3.11142   0.00047  -0.00289   0.00772   0.00484   3.11626
   D11       -1.08127   0.00042  -0.00320   0.00698   0.00378  -1.07748
   D12        1.01549   0.00045  -0.00304   0.00758   0.00455   1.02005
   D13        1.05448  -0.00014   0.00064  -0.00413  -0.00349   1.05098
   D14       -3.13821  -0.00019   0.00032  -0.00487  -0.00455   3.14043
   D15       -1.04145  -0.00015   0.00049  -0.00427  -0.00378  -1.04523
   D16       -1.01991  -0.00028   0.00261  -0.00619  -0.00358  -1.02349
   D17        1.07059  -0.00033   0.00230  -0.00693  -0.00464   1.06596
   D18       -3.11583  -0.00029   0.00247  -0.00633  -0.00387  -3.11970
   D19       -3.11121  -0.00045   0.00291  -0.00742  -0.00451  -3.11572
   D20        1.08125  -0.00040   0.00320  -0.00661  -0.00342   1.07783
   D21       -1.01536  -0.00044   0.00305  -0.00727  -0.00423  -1.01959
[...]
    12  H   -0.013839  -0.026435   0.351492   0.014852  -0.005405   0.004589
    13  H   -0.005570  -0.086959   0.375006   0.010602   0.026205  -0.001518
    14  H    0.009648  -0.173739   0.020045   0.400512   0.039445  -0.006783
    15  H    0.020065  -0.173952   0.009737   0.400562   0.039641  -0.006974
    16  H   -0.012113  -0.090384  -0.012266   0.409552   0.033825  -0.011631
    17  H    0.054316  -0.172110  -0.056618   0.025910   0.430501  -0.024149
    18  H   -0.056703  -0.171418   0.054256   0.025774   0.428406  -0.022705
    19  H    0.099849  -0.055775  -0.064152   0.000877   0.002593   0.347254
    20  H   -0.064439  -0.054527   0.099757   0.000779  -0.000657   0.349388
    21  H   -0.000089  -0.008343  -0.000082  -0.002508  -0.074652   0.117261
               7          8          9         10         11         12
     1  C   -0.008425   0.414978   0.351942   0.374978   0.026055  -0.013839
     2  P    0.081244  -0.120827  -0.027150  -0.087096  -0.120630  -0.026435
     3  C   -0.008409   0.025969  -0.013931  -0.005489   0.415015   0.351492
     4  C    0.003771  -0.010050   0.014825   0.010608  -0.010203   0.014852
     5  C   -0.015178   0.020035  -0.005232   0.026220   0.019710  -0.005405
     6  C    0.086775  -0.011239   0.004725  -0.001552  -0.011032   0.004589
     7  O    8.017404   0.000097  -0.000868  -0.000054   0.000113  -0.000852
     8  H    0.000097   0.498982  -0.027272  -0.024688  -0.001937   0.001109
     9  H   -0.000868  -0.027272   0.500877  -0.022140   0.001117  -0.015191
    10  H   -0.000054  -0.024688  -0.022140   0.494194   0.001459   0.004145
    11  H    0.000113  -0.001937   0.001117   0.001459   0.499033  -0.027301
    12  H   -0.000852   0.001109  -0.015191   0.004145  -0.027301   0.500794
    13  H   -0.000056   0.001470   0.004134  -0.007783  -0.024684  -0.022153
    14  H   -0.000760   0.000243  -0.001578   0.001137  -0.008695   0.002170
    15  H   -0.000768  -0.008685   0.002184   0.007923   0.000245  -0.001579
    16  H    0.000410   0.006801  -0.000111  -0.010492   0.006781  -0.000098
    17  H   -0.007554   0.003827   0.001912  -0.001266  -0.010235   0.006118
    18  H   -0.007395  -0.010225   0.006106   0.000294   0.003814   0.001886
    19  H   -0.057674   0.004706   0.001679   0.001422  -0.001722  -0.002592
    20  H   -0.058004  -0.001746  -0.002677  -0.000700   0.004666   0.001627
    21  H    0.216012  -0.000284   0.000446  -0.000008  -0.000283   0.000435
              13         14         15         16         17         18
     1  C   -0.005570   0.009648   0.020065  -0.012113   0.054316  -0.056703
     2  P   -0.086959  -0.173739  -0.173952  -0.090384  -0.172110  -0.171418
     3  C    0.375006   0.020045   0.009737  -0.012266  -0.056618   0.054256
     4  C    0.010602   0.400512   0.400562   0.409552   0.025910   0.025774
     5  C    0.026205   0.039445   0.039641   0.033825   0.430501   0.428406
     6  C   -0.001518  -0.006783  -0.006974  -0.011631  -0.024149  -0.022705
     7  O   -0.000056  -0.000760  -0.000768   0.000410  -0.007554  -0.007395
     8  H    0.001470   0.000243  -0.008685   0.006801   0.003827  -0.010225
     9  H    0.004134  -0.001578   0.002184  -0.000111   0.001912   0.006106
    10  H   -0.007783   0.001137   0.007923  -0.010492  -0.001266   0.000294
    11  H   -0.024684  -0.008695   0.000245   0.006781  -0.010235   0.003814
    12  H   -0.022153   0.002170  -0.001579  -0.000098   0.006118   0.001886
    13  H    0.494191   0.007918   0.001135  -0.010507   0.000296  -0.001270
    14  H    0.007918   0.500621  -0.024594  -0.020442  -0.003943   0.009378
    15  H    0.001135  -0.024594   0.500656  -0.020411   0.009360  -0.003959
    16  H   -0.010507  -0.020442  -0.020411   0.488546   0.001717   0.001706
    17  H    0.000296  -0.003943   0.009360   0.001717   0.508787  -0.035729
    18  H   -0.001270   0.009378  -0.003959   0.001706  -0.035729   0.509143
    19  H   -0.000702  -0.003463   0.003462   0.000215   0.033425  -0.050652
    20  H    0.001424   0.003475  -0.003462   0.000197  -0.050566   0.033524
    21  H   -0.000007   0.000015   0.000015  -0.000064   0.003066   0.003089
              19         20         21
     1  C    0.099849  -0.064439  -0.000089
     2  P   -0.055775  -0.054527  -0.008343
     3  C   -0.064152   0.099757  -0.000082
     4  C    0.000877   0.000779  -0.002508
     5  C    0.002593  -0.000657  -0.074652
     6  C    0.347254   0.349388   0.117261
     7  O   -0.057674  -0.058004   0.216012
     8  H    0.004706  -0.001746  -0.000284
     9  H    0.001679  -0.002677   0.000446
    10  H    0.001422  -0.000700  -0.000008
    11  H   -0.001722   0.004666  -0.000283
    12  H   -0.002592   0.001627   0.000435
    13  H   -0.000702   0.001424  -0.000007
    14  H   -0.003463   0.003475   0.000015
    15  H    0.003462  -0.003462   0.000015
    16  H    0.000215   0.000197  -0.000064
    17  H    0.033425  -0.050566   0.003066
    18  H   -0.050652   0.033524   0.003089
    19  H    0.751991  -0.177334  -0.005183
    20  H   -0.177334   0.752487  -0.004990
    21  H   -0.005183  -0.004990   0.483333
 Mulliken charges:
               1
     1  C   -0.425466
     2  P   -0.666823
     3  C   -0.425409
     4  C   -0.232811
     5  C    0.106881
     6  C   -0.443703
     7  O   -0.239828
     8  H    0.238736
     9  H    0.226203
    10  H    0.238888
    11  H    0.238714
    12  H    0.226227
    13  H    0.238828
    14  H    0.249392
    15  H    0.249401
    16  H    0.238769
    17  H    0.282939
    18  H    0.282682
    19  H    0.171778
    20  H    0.171780
    21  H    0.272821
 Sum of Mulliken charges =   1.00000
 Mulliken charges with hydrogens summed into heavy atoms:
               1
     1  C    0.278362
     2  P   -0.666823
     3  C    0.278360
     4  C    0.504751
     5  C    0.672502
     6  C   -0.100145
     7  O    0.032993
 Electronic spatial extent (au):  <R**2>=           1221.2003
 Charge=              1.0000 electrons
 Dipole moment (field-independent basis, Debye):
    X=              3.3161    Y=              1.5780    Z=              0.0046  Tot=              3.6724
 Quadrupole moment (field-independent basis, Debye-Ang):
   XX=            -34.2204   YY=            -43.9569   ZZ=            -43.7086
   XY=             -6.2642   XZ=             -0.0197   YZ=              0.0006
 Traceless Quadrupole moment (field-independent basis, Debye-Ang):
   XX=              6.4082   YY=             -3.3283   ZZ=             -3.0800
   XY=             -6.2642   XZ=             -0.0197   YZ=              0.0006
 Octapole moment (field-independent basis, Debye-Ang**2):
  XXX=            -23.5423  YYY=             -1.5546  ZZZ=             -0.0022  XYY=              6.2632
  XXY=             19.2304  XXZ=              0.0779  XZZ=              5.2604  YZZ=              2.0489
  YYZ=             -0.0002  XYZ=             -0.0050
 Hexadecapole moment (field-independent basis, Debye-Ang**3):
 XXXX=           -707.0316 YYYY=           -282.2520 ZZZZ=           -258.5605 XXXY=            -71.7660
 XXXZ=             -0.3054 YYYX=             -7.2538 YYYZ=              0.0033 ZZZX=             -0.0075
 ZZZY=             -0.0019 XXYY=           -200.4978 XXZZ=           -205.2696 YYZZ=            -85.4868
 XXYZ=              0.0145 YYXZ=             -0.0003 ZZXY=              2.3475
 N-N= 4.154780950445D+02 E-N=-2.268282262133D+03  KE= 6.136123883385D+02

 **********************************************************************

            Electrostatic Properties Using The SCF Density

 **********************************************************************

       Atomic Center    1 is at   1.150490  0.985756  1.478698
       Atomic Center    2 is at   0.843146 -0.019403 -0.000103
       Atomic Center    3 is at   1.150021  0.985592 -1.479117
       Atomic Center    4 is at   1.975155 -1.435109  0.000168
       Atomic Center    5 is at  -0.862351 -0.656579  0.000056
       Atomic Center    6 is at  -1.984870  0.388268  0.000612
       Atomic Center    7 is at  -3.177359 -0.369933 -0.000540
       Atomic Center    8 is at   0.942020  0.399090  2.375641
       Atomic Center    9 is at   0.512203  1.870832  1.475100
       Atomic Center   10 is at   2.194795  1.304202  1.496926
       Atomic Center   11 is at   0.940299  0.399232 -2.375955
       Atomic Center   12 is at   0.512280  1.871052 -1.474745
       Atomic Center   13 is at   2.194515  1.303363 -1.498204
       Atomic Center   14 is at   1.806674 -2.046362 -0.888549
       Atomic Center   15 is at   1.806431 -2.045867  0.889188
       Atomic Center   16 is at   3.008537 -1.082834  0.000229
       Atomic Center   17 is at  -0.969142 -1.299348 -0.879862
       Atomic Center   18 is at  -0.968843 -1.300090  0.879458
       Atomic Center   19 is at  -1.918052  1.026534  0.891390
       Atomic Center   20 is at  -1.917485  1.028156 -0.888972
       Atomic Center   21 is at  -3.943215  0.214981  0.001708
 -----------------------------------------------------------------

              Electrostatic Properties (Atomic Units)

 -----------------------------------------------------------------
    Center     Electric         -------- Electric Field --------
               Potential          X             Y             Z
 -----------------------------------------------------------------
    1 Atom    -14.588202     -0.000127     -0.000919     -0.001035
    2 Atom    -53.937251     -0.000890     -0.000439      0.000001
    3 Atom    -14.588206     -0.000124     -0.000919      0.001035
    4 Atom    -14.589336     -0.000731      0.000844     -0.000002
    5 Atom    -14.589678     -0.001703      0.002272      0.000002
    6 Atom    -14.561723      0.005298      0.005713      0.000006
    7 Atom    -22.230605     -0.002911     -0.048490     -0.000132
    8 Atom     -0.917636     -0.003332     -0.009356      0.015867
    9 Atom     -0.917334     -0.010616      0.015464      0.000706
   10 Atom     -0.917358      0.017732      0.005874      0.001058
   11 Atom     -0.917642     -0.003348     -0.009359     -0.015869
   12 Atom     -0.917335     -0.010605      0.015478     -0.000701
   13 Atom     -0.917362      0.017733      0.005864     -0.001074
   14 Atom     -0.918783     -0.002221     -0.011058     -0.014961
   15 Atom     -0.918777     -0.002218     -0.011054      0.014960
   16 Atom     -0.918437      0.018017      0.005156      0.000000
   17 Atom     -0.929000     -0.002594     -0.011260     -0.014642
   18 Atom     -0.929010     -0.002587     -0.011272      0.014635
   19 Atom     -0.967171     -0.000060      0.010253      0.014757
   20 Atom     -0.967211     -0.000053      0.010284     -0.014738
   21 Atom     -0.866577     -0.021618      0.014153      0.000050
 -----------------------------------------------------------------
 -----------------------------------------------------
    Center         ---- Electric Field Gradient ----
                     XX            YY            ZZ
 -----------------------------------------------------
    1 Atom     -500.297385   -500.362817   -500.452719
    2 Atom    -8862.298783  -8862.346607  -8862.376046
    3 Atom     -500.297382   -500.362852   -500.452806
    4 Atom     -500.395991   -500.447362   -500.291798
    5 Atom     -500.666321   -500.492251   -500.406942
    6 Atom     -500.573909   -500.304613   -500.064937
    7 Atom    -1238.585632  -1236.861957  -1234.782652
    8 Atom       -1.644409     -1.770106     -1.929928
    9 Atom       -1.791813     -1.927435     -1.638348
   10 Atom       -2.044555     -1.666320     -1.635297
   11 Atom       -1.644617     -1.769975     -1.929881
   12 Atom       -1.791538     -1.927713     -1.638374
   13 Atom       -2.044711     -1.666158     -1.635295
   14 Atom       -1.644885     -1.768305     -1.931855
   15 Atom       -1.644922     -1.768081     -1.932039
   16 Atom       -2.031294     -1.689543     -1.627276
   17 Atom       -1.654640     -1.790082     -1.930613
   18 Atom       -1.654664     -1.790480     -1.930340
   19 Atom       -1.732697     -1.857838     -1.996070
   20 Atom       -1.732734     -1.858602     -1.995303
   21 Atom       -1.977738     -1.788545     -1.485245
 -----------------------------------------------------
 -----------------------------------------------------
    Center         ---- Electric Field Gradient ----
                     XY            XZ            YZ
 -----------------------------------------------------
    1 Atom       -0.024186     -0.037372     -0.111264
    2 Atom        0.010221      0.000051     -0.000070
    3 Atom       -0.024125      0.037321      0.111311
    4 Atom        0.124851     -0.000040      0.000085
    5 Atom       -0.076532      0.000024     -0.000024
    6 Atom       -0.138763     -0.000317     -0.000285
    7 Atom       -0.163229      0.002587     -0.005418
    8 Atom       -0.050516      0.070292      0.197499
    9 Atom        0.216295     -0.008241      0.003232
   10 Atom       -0.122734      0.000264     -0.005124
   11 Atom       -0.050782     -0.070706     -0.197389
   12 Atom        0.216210      0.008426     -0.003492
   13 Atom       -0.122488      0.000077      0.005223
   14 Atom       -0.036018     -0.063850     -0.202403
   15 Atom       -0.036031      0.063947      0.202290
   16 Atom       -0.140946     -0.000022     -0.000007
   17 Atom       -0.019057     -0.027633     -0.207212
   18 Atom       -0.019010      0.027533      0.207349
   19 Atom       -0.018702     -0.022223     -0.204718
   20 Atom       -0.018871      0.022378      0.204944
   21 Atom        0.318923      0.001288     -0.001107
 -----------------------------------------------------
 -----------------------------------------------------
    Center         ---- Electric Field Gradient ----
                   ----       Eigenvalues       ----
 -----------------------------------------------------
    1 Atom     -500.536069   -500.289489   -500.287364
    2 Atom    -8862.376046  -8862.348699  -8862.296690
    3 Atom     -500.536151   -500.289530   -500.287359
    4 Atom     -500.549142   -500.294211   -500.291798
    5 Atom     -500.695183   -500.463389   -500.406942
    6 Atom     -500.632614   -500.245908   -500.064936
    7 Atom    -1238.600954  -1236.846651  -1234.782635
    8 Atom       -2.080248     -1.637589     -1.626607
    9 Atom       -2.086424     -1.641000     -1.630172
   10 Atom       -2.080894     -1.638289     -1.626989
   11 Atom       -2.080274     -1.637589     -1.626609
   12 Atom       -2.086438     -1.641011     -1.630176
   13 Atom       -2.080893     -1.638285     -1.626986
   14 Atom       -2.080635     -1.637984     -1.626426
   15 Atom       -2.080618     -1.637996     -1.626428
   16 Atom       -2.081923     -1.638914     -1.627276
   17 Atom       -2.081786     -1.652038     -1.641511
   18 Atom       -2.081854     -1.652080     -1.641550
   19 Atom       -2.145058     -1.730911     -1.710635
   20 Atom       -2.145060     -1.730914     -1.710665
   21 Atom       -2.215802     -1.550485     -1.485241
 -----------------------------------------------------
 -----------------------------------------------------
    Center         ---- Electric Field Gradient ----
                       ( tensor representation )
                   3XX-RR        3YY-RR        3ZZ-RR
 -----------------------------------------------------
    1 Atom        0.073589      0.008157     -0.081745
    2 Atom        0.041695     -0.006128     -0.035567
    3 Atom        0.073631      0.008162     -0.081793
    4 Atom       -0.017607     -0.068979      0.086585
    5 Atom       -0.144483      0.029587      0.114896
    6 Atom       -0.259423      0.009874      0.249549
    7 Atom       -1.842218     -0.118543      1.960762
    8 Atom        0.137072      0.011375     -0.148447
    9 Atom       -0.005948     -0.141569      0.147517
   10 Atom       -0.262498      0.115737      0.146761
   11 Atom        0.136874      0.011516     -0.148390
   12 Atom       -0.005663     -0.141838      0.147501
   13 Atom       -0.262656      0.115897      0.146759
   14 Atom        0.136797      0.013377     -0.150173
   15 Atom        0.136758      0.013600     -0.150358
   16 Atom       -0.248590      0.093161      0.155429
   17 Atom        0.137138      0.001696     -0.138834
   18 Atom        0.137164      0.001348     -0.138513
   19 Atom        0.129505      0.004364     -0.133868
   20 Atom        0.129479      0.003611     -0.133090
   21 Atom       -0.227229     -0.038035      0.265264
 -----------------------------------------------------
 -----------------------------------------------------
    Center         ---- Electric Field Gradient ----
                       ( tensor representation )
                   ----       Eigenvalues       ----
 -----------------------------------------------------
    1 Atom       -0.165095      0.081485      0.083610
    2 Atom       -0.035568     -0.008221      0.043788
    3 Atom       -0.165138      0.081484      0.083654
    4 Atom       -0.170758      0.084173      0.086586
    5 Atom       -0.173345      0.058449      0.114896
    6 Atom       -0.318128      0.068578      0.249550
    7 Atom       -1.857541     -0.103237      1.960778
    8 Atom       -0.298767      0.143892      0.154874
    9 Atom       -0.300559      0.144866      0.155693
   10 Atom       -0.298837      0.143768      0.155069
   11 Atom       -0.298783      0.143902      0.154881
   12 Atom       -0.300563      0.144864      0.155699
   13 Atom       -0.298838      0.143770      0.155068
   14 Atom       -0.298953      0.143697      0.155256
   15 Atom       -0.298937      0.143685      0.155253
   16 Atom       -0.299219      0.143790      0.155429
   17 Atom       -0.290008      0.139740      0.150268
   18 Atom       -0.290026      0.139748      0.150278
   19 Atom       -0.282857      0.131290      0.151566
   20 Atom       -0.282847      0.131299      0.151548
   21 Atom       -0.465292      0.200024      0.265268
 -----------------------------------------------------

 Test job not archived.
 1|1|UNPC-NP-ALMACH|FOpt|RB3LYP|6-311++G(d,p)|C5H14O1P1(1+)|HERA|04-Aug
 -2018|0||# RB3LYP/6-311++G** Opt Test prop=EFG||C5PH14O||1,1|C,-0.5922
 450661,1.582662033,1.2117109063|P,-0.0642051404,-0.1162873934,0.856178
 0054|C,1.7052689485,-0.1197187262,0.4554039106|C,-0.341605227,-1.14233
 59898,2.3244894861|C,-1.0342676943,-0.8158984942,-0.5164961898|C,-0.93
 96538783,-0.0890198273,-1.8635127909|O,-1.7735690752,-0.8324207624,-2.
 7288683591|H,-1.6624455131,1.6008332326,1.4273127753|H,-0.3896641915,2
 .2296118433,0.3566087223|H,-0.0484136279,1.9634558032,2.0786347137|H,2
 .0282412394,-1.1337387673,0.2113290322|H,1.9020598053,0.5321884447,-0.
 3972757326|H,2.2778229051,0.2390742362,1.3131693872|H,-0.0216750013,-2
 .1674354118,2.1278955953|H,-1.4025530067,-1.1439880071,2.5818573162|H,
 0.229116249,-0.7457432906,3.1664916343|H,-0.7134199167,-1.8548610757,-
 0.6446558528|H,-2.0804029459,-0.8429571897,-0.1945294944|H,-1.28644616
 12,0.9482498601,-1.7679119902|H,0.0976542649,-0.0749575231,-2.2228874|
 H,-1.7745599667,-0.4391529944,-3.6086436752||Version=EM64W-G09RevD.01|
 State=1-A|HF=-615.4412697|RMSD=8.483e-009|RMSF=8.811e-006|Dipole=0.807
 4016,0.6444481,1.010138|Quadrupole=-3.0810827,-3.1421025,6.2231852,-1.
 4793328,0.9051571,-2.582349|PG=C01 [X(C5H14O1P1)]||@


 WE MIGHT AS WELL ATTEMPT TO INTRODUCE A NEW PLANET 
 INTO THE SOLAR SYSTEM, OR TO ANNIHILATE ONE ALREADYIN EXISTENCE, 
 AS TO CREATE OR DESTROY A PARTICLE OF HYDROGEN.
 ALL THE CHANGES WE CAN PRODUCE CONSIST IN SEPARATING PARTICLES
 THAT ARE IN A STATE OF ... COMBINATION, AND JOINING 
 THOSE THAT WERE PREVIOUSLY AT A DISTANCE.

                                    -- JOHN DALTON, 1810
 Job cpu time:       0 days  0 hours 11 minutes 28.0 seconds.
 File lengths (MBytes):  RWF=     32 Int=      0 D2E=      0 Chk=      6 Scr=      1
 Normal termination of Gaussian 09 at Sat Aug 04 00:37:20 2018.
