 Entering Link 1 = C:\G09W\l1.exe PID=     16200.
  
 Copyright (c) 1988,1990,1992,1993,1995,1998,2003,2009,2013,
            Gaussian, Inc.  All Rights Reserved.
  
 This is part of the Gaussian(R) 09 program.  It is based on
 the Gaussian(R) 03 system (copyright 2003, Gaussian, Inc.),
 the Gaussian(R) 98 system (copyright 1998, Gaussian, Inc.),
 the Gaussian(R) 94 system (copyright 1995, Gaussian, Inc.),
 the Gaussian 92(TM) system (copyright 1992, Gaussian, Inc.),
 the Gaussian 90(TM) system (copyright 1990, Gaussian, Inc.),
 the Gaussian 88(TM) system (copyright 1988, Gaussian, Inc.),
 the Gaussian 86(TM) system (copyright 1986, Carnegie Mellon
 University), and the Gaussian 82(TM) system (copyright 1983,
 Carnegie Mellon University). Gaussian is a federally registered
 trademark of Gaussian, Inc.
  
 This software contains proprietary and confidential information,
 including trade secrets, belonging to Gaussian, Inc.
  
 This software is provided under written license and may be
 used, copied, transmitted, or stored only in accord with that
 written license.
  
 The following legend is applicable only to US Government
 contracts under FAR:
  
                    RESTRICTED RIGHTS LEGEND
  
 Use, reproduction and disclosure by the US Government is
 subject to restrictions as set forth in subparagraphs (a)
 and (c) of the Commercial Computer Software - Restricted
 Rights clause in FAR 52.227-19.
  
 Gaussian, Inc.
 340 Quinnipiac St., Bldg. 40, Wallingford CT 06492
  
  
 ---------------------------------------------------------------
 Warning -- This program may not be used in any manner that
 competes with the business of Gaussian, Inc. or will provide
 assistance to any competitor of Gaussian, Inc.  The licensee
 of this program is prohibited from giving any competitor of
 Gaussian, Inc. access to this program.  By using this program,
 the user acknowledges that Gaussian, Inc. is engaged in the
 business of creating and licensing software in the field of
 computational chemistry and represents and warrants to the
 licensee that it is not a competitor of Gaussian, Inc. and that
 it will not use this program in any manner prohibited above.
 ---------------------------------------------------------------
  

 Cite this work as:
 Gaussian 09, Revision D.01,
 M. J. Frisch, G. W. Trucks, H. B. Schlegel, G. E. Scuseria, 
 M. A. Robb, J. R. Cheeseman, G. Scalmani, V. Barone, B. Mennucci, 
 G. A. Petersson, H. Nakatsuji, M. Caricato, X. Li, H. P. Hratchian, 
 A. F. Izmaylov, J. Bloino, G. Zheng, J. L. Sonnenberg, M. Hada, 
 M. Ehara, K. Toyota, R. Fukuda, J. Hasegawa, M. Ishida, T. Nakajima, 
 Y. Honda, O. Kitao, H. Nakai, T. Vreven, J. A. Montgomery, Jr., 
 J. E. Peralta, F. Ogliaro, M. Bearpark, J. J. Heyd, E. Brothers, 
 K. N. Kudin, V. N. Staroverov, T. Keith, R. Kobayashi, J. Normand, 
 K. Raghavachari, A. Rendell, J. C. Burant, S. S. Iyengar, J. Tomasi, 
 M. Cossi, N. Rega, J. M. Millam, M. Klene, J. E. Knox, J. B. Cross, 
 V. Bakken, C. Adamo, J. Jaramillo, R. Gomperts, R. E. Stratmann, 
 O. Yazyev, A. J. Austin, R. Cammi, C. Pomelli, J. W. Ochterski, 
 R. L. Martin, K. Morokuma, V. G. Zakrzewski, G. A. Voth, 
 P. Salvador, J. J. Dannenberg, S. Dapprich, A. D. Daniels, 
 O. Farkas, J. B. Foresman, J. V. Ortiz, J. Cioslowski, 
 and D. J. Fox, Gaussian, Inc., Wallingford CT, 2013.
 
 ******************************************
 Gaussian 09:  EM64W-G09RevD.01 13-Apr-2013
                06-Aug-2018 
 ******************************************
 %Chk=Anth_376.chk
 %Mem=64GB
 %NProcShared=20
 Will use up to   20 processors via shared memory.
 -------------------------------------
 # RB3LYP/6-311++G** Opt Test prop=EFG
 -------------------------------------
 1/14=-1,18=20,19=15,26=3,38=1/1,3;
 2/9=110,12=2,17=6,18=5,40=1/2;
 3/5=4,6=6,7=1111,11=2,16=1,25=1,30=1,71=1,74=-5,116=1/1,2,3;
 4//1;
 5/5=2,38=5/2;
 6/7=2,8=2,9=2,10=2,14=1,28=1/1,2;
 7//1,2,3,16;
 1/14=-1,18=20,19=15,26=3/3(2);
 2/9=110/2;
 99//99;
 2/9=110/2;
 3/5=4,6=6,7=1111,11=2,16=1,25=1,30=1,71=1,74=-5,116=1/1,2,3;
 4/5=5,16=3,69=1/1;
 5/5=2,38=5/2;
 7//1,2,3,16;
 1/14=-1,18=20,19=15,26=3/3(-5);
 2/9=110/2;
 6/7=2,8=2,9=2,10=2,14=1,19=2,28=1/1,2;
 99/9=1/99;
 --------
 C7PH16O2
 --------
 Symbolic Z-matrix:
 Charge =  1 Multiplicity = 1
 C                     0.43117   1.19427   1.41618 
 P                     0.43117  -0.66973   1.41618 
 C                     2.18825  -1.29195   1.41618 
 C                    -0.44672  -1.29017   2.93896 
 C                    -0.44759  -1.29078  -0.10586 
 C                    -0.92643  -0.10655  -0.93522 
 O                    -1.58739  -0.57367  -2.08001 
 C                    -2.01168   0.46082  -2.8149 
 O                    -2.60764   0.26431  -3.84712 
 C                    -1.74574   1.87298  -2.35429 
 H                    -0.61799   1.56579   1.41618 
 H                     0.95536   1.56473   0.50692 
 H                     0.95588   1.56509   2.32499 
 H                     2.18825  -2.40495   1.41618 
 H                     2.71244  -0.92149   0.50692 
 H                     2.71296  -0.92112   2.32499 
 H                    -0.44729  -2.40317   2.93994 
 H                    -1.49607  -0.91917   2.93863 
 H                     0.07874  -0.91881   3.84712 
 H                     0.25252  -1.90845  -0.71174 
 H                    -1.32205  -1.90906   0.19716 
 H                    -1.62655   0.51112  -0.32934 
 H                    -0.05197   0.51173  -1.23823 
 H                    -1.18935   1.85087  -1.39059 
 H                    -1.1383    2.40442  -3.12067 
 H                    -2.71296   2.40495  -2.21193 
 

 GradGradGradGradGradGradGradGradGradGradGradGradGradGradGradGradGradGrad
 Berny optimization.
 Initialization pass.
                           ----------------------------
                           !    Initial Parameters    !
                           ! (Angstroms and Degrees)  !
 --------------------------                            --------------------------
 ! Name  Definition              Value          Derivative Info.                !
 --------------------------------------------------------------------------------
 ! R1    R(1,2)                  1.864          estimate D2E/DX2                !
 ! R2    R(1,11)                 1.113          estimate D2E/DX2                !
 ! R3    R(1,12)                 1.113          estimate D2E/DX2                !
 ! R4    R(1,13)                 1.113          estimate D2E/DX2                !
 ! R5    R(2,3)                  1.864          estimate D2E/DX2                !
 ! R6    R(2,4)                  1.864          estimate D2E/DX2                !
 ! R7    R(2,5)                  1.864          estimate D2E/DX2                !
 ! R8    R(3,14)                 1.113          estimate D2E/DX2                !
 ! R9    R(3,15)                 1.113          estimate D2E/DX2                !
 ! R10   R(3,16)                 1.113          estimate D2E/DX2                !
 ! R11   R(4,17)                 1.113          estimate D2E/DX2                !
 ! R12   R(4,18)                 1.113          estimate D2E/DX2                !
 ! R13   R(4,19)                 1.113          estimate D2E/DX2                !
 ! R14   R(5,6)                  1.523          estimate D2E/DX2                !
 ! R15   R(5,20)                 1.113          estimate D2E/DX2                !
 ! R16   R(5,21)                 1.113          estimate D2E/DX2                !
 ! R17   R(6,7)                  1.402          estimate D2E/DX2                !
 ! R18   R(6,22)                 1.113          estimate D2E/DX2                !
 ! R19   R(6,23)                 1.113          estimate D2E/DX2                !
 ! R20   R(7,8)                  1.338          estimate D2E/DX2                !
 ! R21   R(8,9)                  1.208          estimate D2E/DX2                !
 ! R22   R(8,10)                 1.509          estimate D2E/DX2                !
 ! R23   R(10,24)                1.113          estimate D2E/DX2                !
 ! R24   R(10,25)                1.113          estimate D2E/DX2                !
 ! R25   R(10,26)                1.113          estimate D2E/DX2                !
 ! A1    A(2,1,11)             109.5            estimate D2E/DX2                !
 ! A2    A(2,1,12)             109.4418         estimate D2E/DX2                !
 ! A3    A(2,1,13)             109.4619         estimate D2E/DX2                !
 ! A4    A(11,1,12)            109.4418         estimate D2E/DX2                !
 ! A5    A(11,1,13)            109.4618         estimate D2E/DX2                !
 ! A6    A(12,1,13)            109.5199         estimate D2E/DX2                !
 ! A7    A(1,2,3)              109.5            estimate D2E/DX2                !
 ! A8    A(1,2,4)              109.4418         estimate D2E/DX2                !
 ! A9    A(1,2,5)              109.4619         estimate D2E/DX2                !
 ! A10   A(3,2,4)              109.4418         estimate D2E/DX2                !
 ! A11   A(3,2,5)              109.4618         estimate D2E/DX2                !
 ! A12   A(4,2,5)              109.52           estimate D2E/DX2                !
 ! A13   A(2,3,14)             109.5            estimate D2E/DX2                !
 ! A14   A(2,3,15)             109.4419         estimate D2E/DX2                !
 ! A15   A(2,3,16)             109.4619         estimate D2E/DX2                !
 ! A16   A(14,3,15)            109.4418         estimate D2E/DX2                !
 ! A17   A(14,3,16)            109.4618         estimate D2E/DX2                !
 ! A18   A(15,3,16)            109.5199         estimate D2E/DX2                !
 ! A19   A(2,4,17)             109.5            estimate D2E/DX2                !
 ! A20   A(2,4,18)             109.4418         estimate D2E/DX2                !
 ! A21   A(2,4,19)             109.4618         estimate D2E/DX2                !
 ! A22   A(17,4,18)            109.4419         estimate D2E/DX2                !
 ! A23   A(17,4,19)            109.4618         estimate D2E/DX2                !
 ! A24   A(18,4,19)            109.52           estimate D2E/DX2                !
 ! A25   A(2,5,6)              109.5            estimate D2E/DX2                !
 ! A26   A(2,5,20)             109.4418         estimate D2E/DX2                !
 ! A27   A(2,5,21)             109.4618         estimate D2E/DX2                !
 ! A28   A(6,5,20)             109.4419         estimate D2E/DX2                !
 ! A29   A(6,5,21)             109.4619         estimate D2E/DX2                !
 ! A30   A(20,5,21)            109.52           estimate D2E/DX2                !
 ! A31   A(5,6,7)              109.5            estimate D2E/DX2                !
 ! A32   A(5,6,22)             109.4418         estimate D2E/DX2                !
 ! A33   A(5,6,23)             109.4619         estimate D2E/DX2                !
 ! A34   A(7,6,22)             109.4418         estimate D2E/DX2                !
 ! A35   A(7,6,23)             109.4618         estimate D2E/DX2                !
 ! A36   A(22,6,23)            109.52           estimate D2E/DX2                !
 ! A37   A(6,7,8)              109.9            estimate D2E/DX2                !
 ! A38   A(7,8,9)              120.0            estimate D2E/DX2                !
 ! A39   A(7,8,10)             120.0            estimate D2E/DX2                !
 ! A40   A(9,8,10)             120.0            estimate D2E/DX2                !
 ! A41   A(8,10,24)            109.4999         estimate D2E/DX2                !
 ! A42   A(8,10,25)            109.4419         estimate D2E/DX2                !
 ! A43   A(8,10,26)            109.4618         estimate D2E/DX2                !
 ! A44   A(24,10,25)           109.4419         estimate D2E/DX2                !
 ! A45   A(24,10,26)           109.4619         estimate D2E/DX2                !
 ! A46   A(25,10,26)           109.52           estimate D2E/DX2                !
 ! D1    D(11,1,2,3)           180.0            estimate D2E/DX2                !
 ! D2    D(11,1,2,4)           -60.0364         estimate D2E/DX2                !
 ! D3    D(11,1,2,5)            59.9996         estimate D2E/DX2                !
 ! D4    D(12,1,2,3)            60.0363         estimate D2E/DX2                !
 ! D5    D(12,1,2,4)           180.0            estimate D2E/DX2                !
 ! D6    D(12,1,2,5)           -59.9641         estimate D2E/DX2                !
 ! D7    D(13,1,2,3)           -59.9996         estimate D2E/DX2                !
 ! D8    D(13,1,2,4)            59.964          estimate D2E/DX2                !
 ! D9    D(13,1,2,5)          -180.0            estimate D2E/DX2                !
 ! D10   D(1,2,3,14)           180.0            estimate D2E/DX2                !
 ! D11   D(1,2,3,15)           -60.0363         estimate D2E/DX2                !
 ! D12   D(1,2,3,16)            59.9996         estimate D2E/DX2                !
 ! D13   D(4,2,3,14)            60.0364         estimate D2E/DX2                !
 ! D14   D(4,2,3,15)          -180.0            estimate D2E/DX2                !
 ! D15   D(4,2,3,16)           -59.964          estimate D2E/DX2                !
 ! D16   D(5,2,3,14)           -59.9996         estimate D2E/DX2                !
 ! D17   D(5,2,3,15)            59.9641         estimate D2E/DX2                !
 ! D18   D(5,2,3,16)          -180.0            estimate D2E/DX2                !
 ! D19   D(1,2,4,17)           180.0            estimate D2E/DX2                !
 ! D20   D(1,2,4,18)            60.0364         estimate D2E/DX2                !
 ! D21   D(1,2,4,19)           -59.9997         estimate D2E/DX2                !
 ! D22   D(3,2,4,17)           -60.0007         estimate D2E/DX2                !
 ! D23   D(3,2,4,18)          -179.9644         estimate D2E/DX2                !
 ! D24   D(3,2,4,19)            59.9996         estimate D2E/DX2                !
 ! D25   D(5,2,4,17)            59.9996         estimate D2E/DX2                !
 ! D26   D(5,2,4,18)           -59.964          estimate D2E/DX2                !
 ! D27   D(5,2,4,19)           180.0            estimate D2E/DX2                !
 ! D28   D(1,2,5,6)              0.0            estimate D2E/DX2                !
 ! D29   D(1,2,5,20)           119.9636         estimate D2E/DX2                !
 ! D30   D(1,2,5,21)          -120.0004         estimate D2E/DX2                !
 ! D31   D(3,2,5,6)           -120.0238         estimate D2E/DX2                !
 ! D32   D(3,2,5,20)            -0.0601         estimate D2E/DX2                !
 ! D33   D(3,2,5,21)           119.9758         estimate D2E/DX2                !
 ! D34   D(4,2,5,6)            119.9881         estimate D2E/DX2                !
 ! D35   D(4,2,5,20)          -120.0482         estimate D2E/DX2                !
 ! D36   D(4,2,5,21)            -0.0123         estimate D2E/DX2                !
 ! D37   D(2,5,6,7)           -180.0            estimate D2E/DX2                !
 ! D38   D(2,5,6,22)           -60.0364         estimate D2E/DX2                !
 ! D39   D(2,5,6,23)            59.9996         estimate D2E/DX2                !
 ! D40   D(20,5,6,7)            60.0364         estimate D2E/DX2                !
 ! D41   D(20,5,6,22)          180.0            estimate D2E/DX2                !
 ! D42   D(20,5,6,23)          -59.964          estimate D2E/DX2                !
 ! D43   D(21,5,6,7)           -59.9996         estimate D2E/DX2                !
 ! D44   D(21,5,6,22)           59.964          estimate D2E/DX2                !
 ! D45   D(21,5,6,23)          180.0            estimate D2E/DX2                !
 ! D46   D(5,6,7,8)           -180.0            estimate D2E/DX2                !
 ! D47   D(22,6,7,8)            60.0364         estimate D2E/DX2                !
 ! D48   D(23,6,7,8)           -59.9996         estimate D2E/DX2                !
 ! D49   D(6,7,8,9)            180.0            estimate D2E/DX2                !
 ! D50   D(6,7,8,10)             0.0            estimate D2E/DX2                !
 ! D51   D(7,8,10,24)            0.0            estimate D2E/DX2                !
 ! D52   D(7,8,10,25)          119.9636         estimate D2E/DX2                !
 ! D53   D(7,8,10,26)         -120.0003         estimate D2E/DX2                !
 ! D54   D(9,8,10,24)         -180.0            estimate D2E/DX2                !
 ! D55   D(9,8,10,25)          -60.0363         estimate D2E/DX2                !
 ! D56   D(9,8,10,26)           59.9997         estimate D2E/DX2                !
 --------------------------------------------------------------------------------
 Trust Radius=3.00D-01 FncErr=1.00D-07 GrdErr=1.00D-06
 Number of steps in this run=    137 maximum allowed number of steps=    156.
 GradGradGradGradGradGradGradGradGradGradGradGradGradGradGradGradGradGrad

                          Input orientation:                          
 ---------------------------------------------------------------------
 Center     Atomic      Atomic             Coordinates (Angstroms)
 Number     Number       Type             X           Y           Z
 ---------------------------------------------------------------------
      1          6           0        0.431167    1.194265    1.416176
      2         15           0        0.431167   -0.669734    1.416176
      3          6           0        2.188250   -1.291950    1.416176
      4          6           0       -0.446724   -1.290166    2.938959
      5          6           0       -0.447592   -1.290780   -0.105856
      6          6           0       -0.926431   -0.106548   -0.935216
      7          8           0       -1.587386   -0.573665   -2.080006
      8          6           0       -2.011681    0.460817   -2.814895
      9          8           0       -2.607643    0.264313   -3.847116
     10          6           0       -1.745743    1.872978   -2.354285
     11          1           0       -0.617993    1.565793    1.416176
     12          1           0        0.955359    1.564727    0.506918
     13          1           0        0.955877    1.565094    2.324986
     14          1           0        2.188250   -2.404950    1.416176
     15          1           0        2.712442   -0.921488    0.506918
     16          1           0        2.712961   -0.921122    2.324986
     17          1           0       -0.447288   -2.403165    2.939937
     18          1           0       -1.496073   -0.919172    2.938633
     19          1           0        0.078739   -0.918806    3.847116
     20          1           0        0.252522   -1.908451   -0.711737
     21          1           0       -1.322051   -1.909062    0.197158
     22          1           0       -1.626545    0.511122   -0.329335
     23          1           0       -0.051972    0.511734   -1.238230
     24          1           0       -1.189346    1.850869   -1.390593
     25          1           0       -1.138296    2.404424   -3.120667
     26          1           0       -2.712961    2.404950   -2.211930
 ---------------------------------------------------------------------
                    Distance matrix (angstroms):
                    1          2          3          4          5
     1  C    0.000000
     2  P    1.863999   0.000000
     3  C    3.044438   1.863999   0.000000
     4  C    3.043347   1.864000   3.043347   0.000000
     5  C    3.043723   1.864000   3.043722   3.044815   0.000000
     6  C    3.010686   2.772958   4.078659   4.079253   1.523000
     7  O    4.407201   4.038202   5.195638   5.196585   2.389697
     8  C    4.940386   5.014740   6.213982   6.214649   3.585158
     9  O    6.148286   6.148907   7.288675   7.289499   4.591423
    10  C    4.406355   5.041894   6.301543   6.301695   4.092676
    11  H    1.113000   2.469477   4.005208   3.241096   3.241239
    12  H    1.113000   2.468672   3.241508   4.003882   3.240013
    13  H    1.113001   2.468950   3.241509   3.239871   4.004339
    14  H    4.005208   2.469477   1.113000   3.241095   3.241237
    15  H    3.241508   2.468673   1.113000   4.003883   3.240013
    16  H    3.241509   2.468950   1.113001   3.239871   4.004340
    17  H    4.004377   2.469476   3.240788   1.113000   3.242569
    18  H    3.240177   2.468673   4.003882   1.113000   3.241345
    19  H    3.240177   2.468950   3.240176   1.113000   4.005169
    20  H    3.766533   2.468673   2.941960   3.768130   1.113000
    21  H    3.767017   2.468950   3.766835   2.943926   1.113000
    22  H    2.783464   2.945405   4.566239   3.913868   2.164884
    23  H    2.783010   2.945363   3.913789   4.566353   2.165143
    24  H    3.306833   4.105783   5.400316   5.400242   3.474292
    25  H    4.950822   5.700579   6.731421   7.130732   4.818785
    26  H    4.951207   5.701085   7.131065   6.732115   4.819322
                    6          7          8          9         10
     6  C    0.000000
     7  O    1.402000   0.000000
     8  C    2.243404   1.337999   0.000000
     9  O    3.382776   2.205858   1.208000   0.000000
    10  C    2.569738   2.467057   1.509001   2.357800   0.000000
    11  H    2.901879   4.211923   4.589695   5.775361   3.947475
    12  H    2.900697   4.210754   4.588724   5.774398   3.946828
    13  H    4.119027   5.517828   6.036904   7.244691   5.411942
    14  H    4.529121   5.461897   6.614681   7.604459   6.927723
    15  H    3.998159   5.030077   5.938228   6.976177   5.989235
    16  H    4.953546   6.165847   7.116908   8.234618   7.041492
    17  H    4.529993   5.463215   6.615724   7.605699   6.928216
    18  H    3.998944   5.031347   5.939133   6.977293   5.989442
    19  H    4.953870   6.166512   7.117275   8.235146   7.041319
    20  H    2.164885   2.653126   3.894011   4.767814   4.581510
    21  H    2.165143   2.653142   3.894147   4.767857   4.581834
    22  H    1.112999   2.059890   2.515724   3.660362   2.443211
    23  H    1.113000   2.060139   2.515735   3.660459   2.442831
    24  H    2.026814   2.551880   2.153396   3.250113   1.113000
    25  H    3.335575   3.186483   2.152651   2.695697   1.113000
    26  H    3.336062   3.186922   2.152908   2.695784   1.113000
                   11         12         13         14         15
    11  H    0.000000
    12  H    1.817192   0.000000
    13  H    1.817417   1.818068   0.000000
    14  H    4.862283   4.255009   4.255106   0.000000
    15  H    4.255010   3.044438   3.545981   1.817192   0.000000
    16  H    4.255107   3.545981   3.044440   1.817417   1.818068
    17  H    4.254834   4.861190   4.253718   3.044324   4.254273
    18  H    3.043674   4.253529   3.544037   4.254368   4.860539
    19  H    3.545157   4.253625   3.042369   3.545156   4.253624
    20  H    4.166075   3.747274   4.667109   2.919172   2.917263
    21  H    3.749176   4.165304   4.667587   3.748883   4.165140
    22  H    2.275152   2.911294   3.850348   5.109104   4.645266
    23  H    2.911579   2.273555   3.849914   4.535583   3.569545
    24  H    2.878483   2.877879   4.299904   6.115399   5.148831
    25  H    4.642948   4.271751   5.894504   7.401279   6.248940
    26  H    4.272731   4.642702   5.894857   7.766605   6.920428
                   16         17         18         19         20
    16  H    0.000000
    17  H    3.544262   0.000000
    18  H    4.253532   1.817192   0.000000
    19  H    3.042369   1.817416   1.818069   0.000000
    20  H    4.031162   3.750893   4.166708   4.668269   0.000000
    21  H    4.667440   2.920990   2.919906   4.032991   1.818068
    22  H    5.284700   4.535621   3.569647   4.732381   3.087306
    23  H    4.732276   5.109794   4.645331   5.284342   2.495437
    24  H    6.059493   6.115631   5.148729   6.059103   4.083175
    25  H    7.452957   7.766680   6.920218   7.815052   5.132077
    26  H    7.815817   7.402228   6.249712   7.453387   5.445190
                   21         22         23         24         25
    21  H    0.000000
    22  H    2.495436   0.000000
    23  H    3.087668   1.818068   0.000000
    24  H    4.083582   1.764181   1.763552   0.000000
    25  H    5.444988   3.408007   2.882004   1.817192   0.000000
    26  H    5.133131   2.882889   3.407818   1.817417   1.818069
                   26
    26  H    0.000000
 Stoichiometry    C7H16O2P(1+)
 Framework group  C1[X(C7H16O2P)]
 Deg. of freedom    72
 Full point group                 C1      NOp   1
 Largest Abelian subgroup         C1      NOp   1
 Largest concise Abelian subgroup C1      NOp   1
                         Standard orientation:                         
 ---------------------------------------------------------------------
 Center     Atomic      Atomic             Coordinates (Angstroms)
 Number     Number       Type             X           Y           Z
 ---------------------------------------------------------------------
      1          6           0        1.478138    1.799264   -0.002073
      2         15           0        1.951828   -0.003541   -0.000040
      3          6           0        2.959621   -0.383795   -1.521307
      4          6           0        2.960463   -0.378295    1.522035
      5          6           0        0.409850   -1.050824    0.001187
      6          6           0       -0.817321   -0.148837    0.000194
      7          8           0       -1.977113   -0.936546    0.001117
      8          6           0       -3.060724   -0.151671    0.000253
      9          8           0       -4.163568   -0.644619    0.000840
     10          6           0       -2.905182    1.349291   -0.001454
     11          1           0        0.876381    2.026315    0.906280
     12          1           0        0.875879    2.023031   -0.910909
     13          1           0        2.398857    2.424600   -0.002806
     14          1           0        3.242463   -1.460255   -1.520092
     15          1           0        2.357362   -0.160028   -2.430142
     16          1           0        3.880341    0.241541   -1.522040
     17          1           0        3.243851   -1.454610    1.524227
     18          1           0        2.358478   -0.151856    2.430390
     19          1           0        3.880865    0.247505    1.520323
     20          1           0        0.397882   -1.693631   -0.907342
     21          1           0        0.397916   -1.692202    0.910725
     22          1           0       -0.805352    0.493969    0.908723
     23          1           0       -0.805386    0.492542   -0.909344
     24          1           0       -1.823314    1.610693   -0.001778
     25          1           0       -3.388417    1.770779   -0.911179
     26          1           0       -3.388850    1.773260    0.906888
 ---------------------------------------------------------------------
 Rotational constants (GHZ):      2.3457126      0.4597831      0.4403512
 Standard basis: 6-311++G(d,p) (5D, 7F)
 There are   350 symmetry adapted cartesian basis functions of A   symmetry.
 There are   340 symmetry adapted basis functions of A   symmetry.
   340 basis functions,   518 primitive gaussians,   350 cartesian basis functions
    44 alpha electrons       44 beta electrons
       nuclear repulsion energy       658.1094673689 Hartrees.
 NAtoms=   26 NActive=   26 NUniq=   26 SFac= 1.00D+00 NAtFMM=   60 NAOKFM=F Big=F
 Integral buffers will be    131072 words long.
 Raffenetti 2 integral format.
 Two-electron integral symmetry is turned on.
 One-electron integrals computed using PRISM.
 NBasis=   340 RedAO= T EigKep=  4.97D-06  NBF=   340
 NBsUse=   340 1.00D-06 EigRej= -1.00D+00 NBFU=   340
 ExpMin= 3.48D-02 ExpMax= 7.75D+04 ExpMxC= 2.65D+03 IAcc=3 IRadAn=         5 AccDes= 0.00D+00
 Harris functional with IExCor=  402 and IRadAn=       5 diagonalized for initial guess.
 HarFok:  IExCor=  402 AccDes= 0.00D+00 IRadAn=         5 IDoV= 1 UseB2=F ITyADJ=14
 ICtDFT=  3500011 ScaDFX=  1.000000  1.000000  1.000000  1.000000
 FoFCou: FMM=F IPFlag=           0 FMFlag=      100000 FMFlg1=           0
         NFxFlg=           0 DoJE=T BraDBF=F KetDBF=T FulRan=T
         wScrn=  0.000000 ICntrl=     500 IOpCl=  0 I1Cent=   200000004 NGrid=           0
         NMat0=    1 NMatS0=      1 NMatT0=    0 NMatD0=    1 NMtDS0=    0 NMtDT0=    0
 Petite list used in FoFCou.
 Keep R1 ints in memory in canonical form, NReq=1702306724.
 Requested convergence on RMS density matrix=1.00D-08 within 128 cycles.
 Requested convergence on MAX density matrix=1.00D-06.
 Requested convergence on             energy=1.00D-06.
 No special actions if energy rises.
 SCF Done:  E(RB3LYP) =  -768.093271509     A.U. after   13 cycles
            NFock= 13  Conv=0.76D-08     -V/T= 2.0036

 **********************************************************************

            Population analysis using the SCF density.

 **********************************************************************

 Orbital symmetries:
       Occupied  (A) (A) (A) (A) (A) (A) (A) (A) (A) (A) (A) (A)
                 (A) (A) (A) (A) (A) (A) (A) (A) (A) (A) (A) (A)
                 (A) (A) (A) (A) (A) (A) (A) (A) (A) (A) (A) (A)
                 (A) (A) (A) (A) (A) (A) (A) (A)
       Virtual   (A) (A) (A) (A) (A) (A) (A) (A) (A) (A) (A) (A)
                 (A) (A) (A) (A) (A) (A) (A) (A) (A) (A) (A) (A)
                 (A) (A) (A) (A) (A) (A) (A) (A) (A) (A) (A) (A)
                 (A) (A) (A) (A) (A) (A) (A) (A) (A) (A) (A) (A)
                 (A) (A) (A) (A) (A) (A) (A) (A) (A) (A) (A) (A)
                 (A) (A) (A) (A) (A) (A) (A) (A) (A) (A) (A) (A)
                 (A) (A) (A) (A) (A) (A) (A) (A) (A) (A) (A) (A)
                 (A) (A) (A) (A) (A) (A) (A) (A) (A) (A) (A) (A)
                 (A) (A) (A) (A) (A) (A) (A) (A) (A) (A) (A) (A)
                 (A) (A) (A) (A) (A) (A) (A) (A) (A) (A) (A) (A)
                 (A) (A) (A) (A) (A) (A) (A) (A) (A) (A) (A) (A)
                 (A) (A) (A) (A) (A) (A) (A) (A) (A) (A) (A) (A)
                 (A) (A) (A) (A) (A) (A) (A) (A) (A) (A) (A) (A)
                 (A) (A) (A) (A) (A) (A) (A) (A) (A) (A) (A) (A)
                 (A) (A) (A) (A) (A) (A) (A) (A) (A) (A) (A) (A)
                 (A) (A) (A) (A) (A) (A) (A) (A) (A) (A) (A) (A)
                 (A) (A) (A) (A) (A) (A) (A) (A) (A) (A) (A) (A)
                 (A) (A) (A) (A) (A) (A) (A) (A) (A) (A) (A) (A)
                 (A) (A) (A) (A) (A) (A) (A) (A) (A) (A) (A) (A)
                 (A) (A) (A) (A) (A) (A) (A) (A) (A) (A) (A) (A)
                 (A) (A) (A) (A) (A) (A) (A) (A) (A) (A) (A) (A)
                 (A) (A) (A) (A) (A) (A) (A) (A) (A) (A) (A) (A)
                 (A) (A) (A) (A) (A) (A) (A) (A) (A) (A) (A) (A)
                 (A) (A) (A) (A) (A) (A) (A) (A) (A) (A) (A) (A)
                 (A) (A) (A) (A) (A) (A) (A) (A)
 The electronic state is 1-A.
 Alpha  occ. eigenvalues --  -77.31421 -19.30855 -19.21370 -10.41652 -10.40237
 Alpha  occ. eigenvalues --  -10.37969 -10.37564 -10.37543 -10.37541 -10.30325
 Alpha  occ. eigenvalues --   -6.80651  -4.96709  -4.96696  -4.96693  -1.25390
 Alpha  occ. eigenvalues --   -1.14283  -0.99622  -0.93299  -0.89407  -0.88948
 Alpha  occ. eigenvalues --   -0.87332  -0.81908  -0.73912  -0.72262  -0.67496
 Alpha  occ. eigenvalues --   -0.63969  -0.63471  -0.62512  -0.62456  -0.60929
 Alpha  occ. eigenvalues --   -0.60576  -0.59358  -0.58591  -0.58339  -0.55516
 Alpha  occ. eigenvalues --   -0.55396  -0.54521  -0.53487  -0.53083  -0.51411
 Alpha  occ. eigenvalues --   -0.50442  -0.49792  -0.42582  -0.38307
 Alpha virt. eigenvalues --   -0.16443  -0.14972  -0.14606  -0.13634  -0.12985
 Alpha virt. eigenvalues --   -0.12464  -0.12023  -0.11831  -0.11760  -0.10001
 Alpha virt. eigenvalues --   -0.09688  -0.08868  -0.08597  -0.08081  -0.06972
 Alpha virt. eigenvalues --   -0.06453  -0.06349  -0.05801  -0.05476  -0.05113
 Alpha virt. eigenvalues --   -0.04674  -0.04344  -0.04054  -0.03535  -0.01655
 Alpha virt. eigenvalues --   -0.01617  -0.01481  -0.01425  -0.01195  -0.00502
 Alpha virt. eigenvalues --    0.00307   0.00622   0.01359   0.01721   0.02280
 Alpha virt. eigenvalues --    0.02340   0.02666   0.02807   0.02935   0.03461
 Alpha virt. eigenvalues --    0.03747   0.03896   0.04446   0.04561   0.05260
 Alpha virt. eigenvalues --    0.05372   0.05475   0.05562   0.06272   0.06386
 Alpha virt. eigenvalues --    0.06788   0.07119   0.07559   0.08069   0.08350
 Alpha virt. eigenvalues --    0.08536   0.10102   0.10169   0.11489   0.12062
 Alpha virt. eigenvalues --    0.12444   0.13525   0.13713   0.14378   0.14997
 Alpha virt. eigenvalues --    0.15319   0.16058   0.16087   0.17115   0.18581
 Alpha virt. eigenvalues --    0.19287   0.19671   0.20089   0.21119   0.21285
 Alpha virt. eigenvalues --    0.21698   0.22221   0.23135   0.23500   0.24749
 Alpha virt. eigenvalues --    0.25921   0.26225   0.27580   0.29233   0.32582
 Alpha virt. eigenvalues --    0.33522   0.33975   0.34450   0.35282   0.35635
 Alpha virt. eigenvalues --    0.36795   0.36879   0.37347   0.40437   0.40639
 Alpha virt. eigenvalues --    0.40832   0.40975   0.42476   0.42521   0.45874
 Alpha virt. eigenvalues --    0.46924   0.47144   0.47532   0.49185   0.50213
 Alpha virt. eigenvalues --    0.50656   0.51627   0.51962   0.52326   0.53272
 Alpha virt. eigenvalues --    0.54276   0.55645   0.57186   0.57331   0.58140
 Alpha virt. eigenvalues --    0.58962   0.59402   0.59845   0.61102   0.61118
 Alpha virt. eigenvalues --    0.61439   0.64670   0.65308   0.65985   0.66412
 Alpha virt. eigenvalues --    0.67056   0.70280   0.71516   0.76064   0.76473
 Alpha virt. eigenvalues --    0.78738   0.81941   0.83688   0.86132   0.87392
 Alpha virt. eigenvalues --    0.88185   0.89269   0.89662   0.91671   0.95036
 Alpha virt. eigenvalues --    1.01844   1.02320   1.05160   1.07181   1.09263
 Alpha virt. eigenvalues --    1.09897   1.10546   1.11031   1.13287   1.15578
 Alpha virt. eigenvalues --    1.18526   1.21087   1.24594   1.25396   1.25870
 Alpha virt. eigenvalues --    1.27712   1.29440   1.32653   1.35358   1.36128
 Alpha virt. eigenvalues --    1.36878   1.38493   1.39046   1.40143   1.40394
 Alpha virt. eigenvalues --    1.42024   1.42064   1.42545   1.42879   1.43942
 Alpha virt. eigenvalues --    1.45765   1.48073   1.48718   1.48823   1.49758
 Alpha virt. eigenvalues --    1.51155   1.51227   1.52272   1.53190   1.57757
 Alpha virt. eigenvalues --    1.57991   1.59293   1.61808   1.63053   1.63173
 Alpha virt. eigenvalues --    1.67582   1.68101   1.68439   1.69508   1.76605
 Alpha virt. eigenvalues --    1.77269   1.78830   1.79211   1.79673   1.80916
 Alpha virt. eigenvalues --    1.83251   1.84721   1.88362   1.89926   1.94312
 Alpha virt. eigenvalues --    1.95552   1.95861   1.97472   2.00060   2.01510
 Alpha virt. eigenvalues --    2.03285   2.03623   2.03914   2.04618   2.08672
 Alpha virt. eigenvalues --    2.09043   2.18121   2.25134   2.25332   2.26635
 Alpha virt. eigenvalues --    2.27944   2.29212   2.30244   2.30279   2.30715
 Alpha virt. eigenvalues --    2.32136   2.34042   2.34317   2.35116   2.35120
 Alpha virt. eigenvalues --    2.36990   2.38175   2.38221   2.40361   2.41132
 Alpha virt. eigenvalues --    2.42396   2.46255   2.49433   2.49756   2.51433
 Alpha virt. eigenvalues --    2.54087   2.56844   2.59226   2.63379   2.64334
 Alpha virt. eigenvalues --    2.70693   2.75148   2.77153   2.78053   2.78609
 Alpha virt. eigenvalues --    2.82166   2.83669   2.83932   2.90121   2.94141
 Alpha virt. eigenvalues --    2.97572   2.99265   3.01843   3.06487   3.08363
 Alpha virt. eigenvalues --    3.09304   3.12449   3.20264   3.24397   3.26109
 Alpha virt. eigenvalues --    3.46712   3.49096   3.50190   3.51727   3.52508
 Alpha virt. eigenvalues --    3.54052   3.55638   3.56934   3.57713   3.64140
 Alpha virt. eigenvalues --    3.66033   3.73492   3.88671   3.95499   4.03477
 Alpha virt. eigenvalues --    4.10257   4.90391   4.96380   5.08706   5.29309
 Alpha virt. eigenvalues --    5.48312   5.78441   6.92238  13.82378  13.82868
 Alpha virt. eigenvalues --   13.87516  23.65402  23.67016  23.68180  23.69215
 Alpha virt. eigenvalues --   23.71412  23.73181  23.82116  49.78493  49.92998
 Alpha virt. eigenvalues --  163.07160
          Condensed to atoms (all electrons):
               1          2          3          4          5          6
     1  C    6.681528  -2.077152  -0.001995  -0.003846   0.499093  -0.311270
     2  P   -2.077152  21.746349  -0.400010  -0.396736  -2.281125   0.255691
     3  C   -0.001995  -0.400010   6.013077  -0.275303  -0.273385   0.302021
     4  C   -0.003846  -0.396736  -0.275303   6.011256  -0.270997   0.299775
     5  C    0.499093  -2.281125  -0.273385  -0.270997  12.012635  -4.501074
     6  C   -0.311270   0.255691   0.302021   0.299775  -4.501074   9.934092
     7  O   -0.007475   0.125347   0.000277   0.000299  -0.264712   0.169011
     8  C    0.005837  -0.195501   0.002159   0.002165  -0.090044   0.192531
     9  O   -0.000024  -0.002192   0.000028   0.000029   0.021666  -0.001386
    10  C    0.017186  -0.011313   0.005142   0.005115  -0.235185   0.107016
    11  H    0.357057  -0.079441   0.025495  -0.021664   0.015745   0.014036
    12  H    0.356564  -0.079083  -0.021785   0.025511   0.016361   0.013458
    13  H    0.445618  -0.210190   0.003755   0.003806   0.061292  -0.028551
    14  H    0.030606  -0.095291   0.381049  -0.008213   0.032592  -0.021590
    15  H    0.007177  -0.104434   0.369265   0.016553   0.004612   0.019077
    16  H   -0.009783  -0.027263   0.383526  -0.026131   0.013870  -0.002006
    17  H    0.030686  -0.094977  -0.008240   0.381018   0.032273  -0.021448
    18  H    0.007050  -0.104139   0.016610   0.369004   0.004902   0.018779
    19  H   -0.009744  -0.027563  -0.026093   0.383548   0.013988  -0.001990
    20  H    0.026681  -0.219168   0.077179  -0.029209   0.326301   0.099781
    21  H    0.026267  -0.217861  -0.029417   0.076962   0.327627   0.098074
    22  H    0.069149  -0.122802   0.031074  -0.040293   0.046942   0.244490
    23  H    0.067742  -0.120039  -0.040554   0.030960   0.048961   0.241373
    24  H   -0.035057   0.143142   0.000389   0.000415  -0.145139  -0.066743
    25  H   -0.002384   0.003613   0.000542  -0.001136   0.022516  -0.000802
    26  H   -0.002401   0.003622  -0.001135   0.000538   0.022572  -0.000892
               7          8          9         10         11         12
     1  C   -0.007475   0.005837  -0.000024   0.017186   0.357057   0.356564
     2  P    0.125347  -0.195501  -0.002192  -0.011313  -0.079441  -0.079083
     3  C    0.000277   0.002159   0.000028   0.005142   0.025495  -0.021785
     4  C    0.000299   0.002165   0.000029   0.005115  -0.021664   0.025511
     5  C   -0.264712  -0.090044   0.021666  -0.235185   0.015745   0.016361
     6  C    0.169011   0.192531  -0.001386   0.107016   0.014036   0.013458
     7  O    8.269238  -0.183550  -0.062437  -0.053346  -0.005734  -0.005742
     8  C   -0.183550   5.652926   0.447111   0.161754   0.012570   0.012610
     9  O   -0.062437   0.447111   7.990469  -0.116934  -0.000179  -0.000179
    10  C   -0.053346   0.161754  -0.116934   5.454189   0.001848   0.001801
    11  H   -0.005734   0.012570  -0.000179   0.001848   0.547784  -0.039203
    12  H   -0.005742   0.012610  -0.000179   0.001801  -0.039203   0.548195
    13  H    0.001542  -0.002042  -0.000029  -0.001431  -0.021176  -0.021033
    14  H   -0.000327   0.000066   0.000028  -0.000199  -0.002350  -0.000198
    15  H   -0.000397   0.001662  -0.000053   0.000261   0.001857  -0.008005
    16  H    0.000532  -0.000128  -0.000001   0.000324   0.001238   0.002156
    17  H   -0.000328   0.000069   0.000028  -0.000200  -0.000224  -0.002346
    18  H   -0.000399   0.001658  -0.000053   0.000253  -0.007974   0.001845
    19  H    0.000529  -0.000125  -0.000001   0.000324   0.002199   0.001230
    20  H   -0.006202   0.024475  -0.000874  -0.001259  -0.001527   0.010325
    21  H   -0.006169   0.024306  -0.000873  -0.001261   0.010300  -0.001533
    22  H   -0.043951  -0.015982   0.007665   0.011431  -0.014219   0.013015
    23  H   -0.043794  -0.016641   0.007696   0.011384   0.012999  -0.014183
    24  H    0.087559  -0.196747   0.004936   0.324414  -0.019209  -0.019202
    25  H    0.002055  -0.032874  -0.012041   0.404255   0.000740   0.000442
    26  H    0.002058  -0.032814  -0.012029   0.404217   0.000440   0.000743
              13         14         15         16         17         18
     1  C    0.445618   0.030606   0.007177  -0.009783   0.030686   0.007050
     2  P   -0.210190  -0.095291  -0.104434  -0.027263  -0.094977  -0.104139
     3  C    0.003755   0.381049   0.369265   0.383526  -0.008240   0.016610
     4  C    0.003806  -0.008213   0.016553  -0.026131   0.381018   0.369004
     5  C    0.061292   0.032592   0.004612   0.013870   0.032273   0.004902
     6  C   -0.028551  -0.021590   0.019077  -0.002006  -0.021448   0.018779
     7  O    0.001542  -0.000327  -0.000397   0.000532  -0.000328  -0.000399
     8  C   -0.002042   0.000066   0.001662  -0.000128   0.000069   0.001658
     9  O   -0.000029   0.000028  -0.000053  -0.000001   0.000028  -0.000053
    10  C   -0.001431  -0.000199   0.000261   0.000324  -0.000200   0.000253
    11  H   -0.021176  -0.002350   0.001857   0.001238  -0.000224  -0.007974
    12  H   -0.021033  -0.000198  -0.008005   0.002156  -0.002346   0.001845
    13  H    0.455584   0.002090   0.005281  -0.004137   0.002087   0.005289
    14  H    0.002090   0.485670  -0.023769  -0.018985  -0.010745   0.001592
    15  H    0.005281  -0.023769   0.501754  -0.024011   0.001582  -0.000750
    16  H   -0.004137  -0.018985  -0.024011   0.488285   0.004549  -0.001243
    17  H    0.002087  -0.010745   0.001582   0.004549   0.485624  -0.023704
    18  H    0.005289   0.001592  -0.000750  -0.001243  -0.023704   0.501678
    19  H   -0.004138   0.004551  -0.001235  -0.008576  -0.018944  -0.024047
    20  H   -0.000184  -0.006591   0.008707   0.001233   0.003802  -0.001585
    21  H   -0.000193   0.003801  -0.001593  -0.000967  -0.006594   0.008689
    22  H    0.000738  -0.002901   0.004308   0.000881   0.009077  -0.021871
    23  H    0.000680   0.009103  -0.021945   0.000489  -0.002895   0.004290
    24  H    0.010239  -0.000363   0.000494  -0.000184  -0.000361   0.000498
    25  H   -0.000397  -0.000020   0.000043   0.000003  -0.000005  -0.000014
    26  H   -0.000397  -0.000005  -0.000014  -0.000037  -0.000020   0.000042
              19         20         21         22         23         24
     1  C   -0.009744   0.026681   0.026267   0.069149   0.067742  -0.035057
     2  P   -0.027563  -0.219168  -0.217861  -0.122802  -0.120039   0.143142
     3  C   -0.026093   0.077179  -0.029417   0.031074  -0.040554   0.000389
     4  C    0.383548  -0.029209   0.076962  -0.040293   0.030960   0.000415
     5  C    0.013988   0.326301   0.327627   0.046942   0.048961  -0.145139
     6  C   -0.001990   0.099781   0.098074   0.244490   0.241373  -0.066743
     7  O    0.000529  -0.006202  -0.006169  -0.043951  -0.043794   0.087559
     8  C   -0.000125   0.024475   0.024306  -0.015982  -0.016641  -0.196747
     9  O   -0.000001  -0.000874  -0.000873   0.007665   0.007696   0.004936
    10  C    0.000324  -0.001259  -0.001261   0.011431   0.011384   0.324414
    11  H    0.002199  -0.001527   0.010300  -0.014219   0.012999  -0.019209
    12  H    0.001230   0.010325  -0.001533   0.013015  -0.014183  -0.019202
    13  H   -0.004138  -0.000184  -0.000193   0.000738   0.000680   0.010239
    14  H    0.004551  -0.006591   0.003801  -0.002901   0.009103  -0.000363
    15  H   -0.001235   0.008707  -0.001593   0.004308  -0.021945   0.000494
    16  H   -0.008576   0.001233  -0.000967   0.000881   0.000489  -0.000184
    17  H   -0.018944   0.003802  -0.006594   0.009077  -0.002895  -0.000361
    18  H   -0.024047  -0.001585   0.008689  -0.021871   0.004290   0.000498
    19  H    0.488248  -0.000948   0.001213   0.000525   0.000863  -0.000190
    20  H   -0.000948   0.498234  -0.039801   0.052000  -0.071671  -0.006654
    21  H    0.001213  -0.039801   0.498135  -0.071602   0.052012  -0.006619
    22  H    0.000525   0.052000  -0.071602   0.893555  -0.234157  -0.035469
    23  H    0.000863  -0.071671   0.052012  -0.234157   0.894329  -0.035179
    24  H   -0.000190  -0.006654  -0.006619  -0.035469  -0.035179   0.979108
    25  H   -0.000037   0.000915  -0.000550   0.001955  -0.011763  -0.054044
    26  H    0.000003  -0.000546   0.000912  -0.011709   0.001947  -0.054003
              25         26
     1  C   -0.002384  -0.002401
     2  P    0.003613   0.003622
     3  C    0.000542  -0.001135
     4  C   -0.001136   0.000538
     5  C    0.022516   0.022572
     6  C   -0.000802  -0.000892
     7  O    0.002055   0.002058
     8  C   -0.032874  -0.032814
     9  O   -0.012041  -0.012029
    10  C    0.404255   0.404217
    11  H    0.000740   0.000440
    12  H    0.000442   0.000743
    13  H   -0.000397  -0.000397
    14  H   -0.000020  -0.000005
    15  H    0.000043  -0.000014
    16  H    0.000003  -0.000037
    17  H   -0.000005  -0.000020
    18  H   -0.000014   0.000042
    19  H   -0.000037   0.000003
    20  H    0.000915  -0.000546
    21  H   -0.000550   0.000912
    22  H    0.001955  -0.011709
    23  H   -0.011763   0.001947
    24  H   -0.054044  -0.054003
    25  H    0.461438  -0.003550
    26  H   -0.003550   0.461381
 Mulliken charges:
               1
     1  C   -0.167109
     2  P   -0.411485
     3  C   -0.533671
     4  C   -0.533426
     5  C    0.537713
     6  C   -1.051451
     7  O    0.026117
     8  C    0.224547
     9  O   -0.270368
    10  C   -0.489787
    11  H    0.208590
    12  H    0.208238
    13  H    0.295898
    14  H    0.240398
    15  H    0.243574
    16  H    0.226365
    17  H    0.240235
    18  H    0.243603
    19  H    0.226411
    20  H    0.256586
    21  H    0.256735
    22  H    0.228149
    23  H    0.227994
    24  H    0.123967
    25  H    0.221099
    26  H    0.221079
 Sum of Mulliken charges =   1.00000
 Mulliken charges with hydrogens summed into heavy atoms:
               1
     1  C    0.545617
     2  P   -0.411485
     3  C    0.176665
     4  C    0.176823
     5  C    1.051034
     6  C   -0.595308
     7  O    0.026117
     8  C    0.224547
     9  O   -0.270368
    10  C    0.076358
 Electronic spatial extent (au):  <R**2>=           2605.4654
 Charge=              1.0000 electrons
 Dipole moment (field-independent basis, Debye):
    X=             11.7028    Y=              3.0134    Z=             -0.0038  Tot=             12.0846
 Quadrupole moment (field-independent basis, Debye-Ang):
   XX=            -55.4048   YY=            -61.5488   ZZ=            -58.5470
   XY=            -10.6068   XZ=              0.0135   YZ=              0.0097
 Traceless Quadrupole moment (field-independent basis, Debye-Ang):
   XX=              3.0954   YY=             -3.0486   ZZ=             -0.0468
   XY=            -10.6068   XZ=              0.0135   YZ=              0.0097
 Octapole moment (field-independent basis, Debye-Ang**2):
  XXX=            152.4516  YYY=              1.9808  ZZZ=              0.0058  XYY=             13.5893
  XXY=             34.4226  XXZ=             -0.0345  XZZ=             11.6898  YZZ=             -2.3227
  YYZ=              0.0001  XYZ=              0.0114
 Hexadecapole moment (field-independent basis, Debye-Ang**3):
 XXXX=          -2699.0108 YYYY=           -427.8795 ZZZZ=           -289.5689 XXXY=           -127.8266
 XXXZ=              0.1655 YYYX=             -1.0949 YYYZ=              0.0366 ZZZX=              0.0339
 ZZZY=              0.0254 XXYY=           -471.9007 XXZZ=           -418.3016 YYZZ=           -118.8450
 XXYZ=              0.0821 YYXZ=             -0.0202 ZZXY=             -9.7141
 N-N= 6.581094673689D+02 E-N=-3.107649642833D+03  KE= 7.653259904053D+02

 **********************************************************************

            Electrostatic Properties Using The SCF Density

 **********************************************************************

       Atomic Center    1 is at   1.478138  1.799264 -0.002073
       Atomic Center    2 is at   1.951828 -0.003541 -0.000040
       Atomic Center    3 is at   2.959621 -0.383795 -1.521307
       Atomic Center    4 is at   2.960463 -0.378295  1.522035
       Atomic Center    5 is at   0.409850 -1.050824  0.001187
       Atomic Center    6 is at  -0.817321 -0.148837  0.000194
       Atomic Center    7 is at  -1.977113 -0.936546  0.001117
       Atomic Center    8 is at  -3.060724 -0.151671  0.000253
       Atomic Center    9 is at  -4.163568 -0.644619  0.000840
       Atomic Center   10 is at  -2.905182  1.349291 -0.001454
       Atomic Center   11 is at   0.876381  2.026315  0.906280
       Atomic Center   12 is at   0.875879  2.023031 -0.910909
       Atomic Center   13 is at   2.398857  2.424600 -0.002806
       Atomic Center   14 is at   3.242463 -1.460255 -1.520092
       Atomic Center   15 is at   2.357362 -0.160028 -2.430142
       Atomic Center   16 is at   3.880341  0.241541 -1.522040
       Atomic Center   17 is at   3.243851 -1.454610  1.524227
       Atomic Center   18 is at   2.358478 -0.151856  2.430390
       Atomic Center   19 is at   3.880865  0.247505  1.520323
       Atomic Center   20 is at   0.397882 -1.693631 -0.907342
       Atomic Center   21 is at   0.397916 -1.692202  0.910725
       Atomic Center   22 is at  -0.805352  0.493969  0.908723
       Atomic Center   23 is at  -0.805386  0.492542 -0.909344
       Atomic Center   24 is at  -1.823314  1.610693 -0.001778
       Atomic Center   25 is at  -3.388417  1.770779 -0.911179
       Atomic Center   26 is at  -3.388850  1.773260  0.906888
 -----------------------------------------------------------------

              Electrostatic Properties (Atomic Units)

 -----------------------------------------------------------------
    Center     Electric         -------- Electric Field --------
               Potential          X             Y             Z
 -----------------------------------------------------------------
    1 Atom    -14.566013      0.001129     -0.000250     -0.000009
    2 Atom    -53.921098      0.000465     -0.000908      0.000012
    3 Atom    -14.570413     -0.000429      0.000207      0.000850
    4 Atom    -14.570429     -0.000435      0.000187     -0.000852
    5 Atom    -14.571114     -0.000705     -0.001060     -0.000001
    6 Atom    -14.543623      0.011398      0.006943      0.000006
    7 Atom    -22.189650     -0.001165     -0.047984      0.000053
    8 Atom    -14.535120     -0.013254      0.015385     -0.000013
    9 Atom    -22.287247     -0.047641     -0.021036      0.000025
   10 Atom    -14.642757      0.000178      0.004236     -0.000005
   11 Atom     -0.903249     -0.000373      0.002673      0.002861
   12 Atom     -0.903271     -0.000333      0.002779     -0.002860
   13 Atom     -0.904674      0.002936      0.002634     -0.000055
   14 Atom     -0.908535      0.001084     -0.003903     -0.000263
   15 Atom     -0.908321     -0.001728      0.000632     -0.003775
   16 Atom     -0.909284      0.003613      0.001947     -0.000900
   17 Atom     -0.908584      0.001098     -0.003900      0.000295
   18 Atom     -0.908334     -0.001728      0.000644      0.003772
   19 Atom     -0.909265      0.003608      0.001957      0.000877
   20 Atom     -0.915721      0.002046     -0.005478     -0.002605
   21 Atom     -0.915705      0.002027     -0.005451      0.002623
   22 Atom     -0.941574      0.003101      0.000261      0.003763
   23 Atom     -0.941525      0.003102      0.000203     -0.003773
   24 Atom     -0.975023     -0.014990      0.020169     -0.000002
   25 Atom     -0.974609     -0.004030      0.001174     -0.001378
   26 Atom     -0.974602     -0.004016      0.001160      0.001373
 -----------------------------------------------------------------
 -----------------------------------------------------
    Center         ---- Electric Field Gradient ----
                     XX            YY            ZZ
 -----------------------------------------------------
    1 Atom     -500.311306   -500.575890   -500.302022
    2 Atom    -8862.858798  -8862.929541  -8862.878097
    3 Atom     -500.402494   -500.322738   -500.523305
    4 Atom     -500.402676   -500.322188   -500.523439
    5 Atom     -500.623279   -500.508737   -500.370617
    6 Atom     -500.750504   -500.507558   -500.329417
    7 Atom    -1239.124542  -1237.266366  -1236.087888
    8 Atom     -501.140729   -501.032053   -501.618680
    9 Atom    -1238.578308  -1236.870685  -1239.349938
   10 Atom     -500.258391   -500.409244   -500.260178
   11 Atom       -1.723569     -1.627801     -1.874753
   12 Atom       -1.723825     -1.627518     -1.875061
   13 Atom       -1.880791     -1.724048     -1.596470
   14 Atom       -1.622540     -1.972969     -1.603900
   15 Atom       -1.728182     -1.615840     -1.863075
   16 Atom       -1.870969     -1.730495     -1.606822
   17 Atom       -1.622704     -1.972973     -1.603908
   18 Atom       -1.728079     -1.616219     -1.862794
   19 Atom       -1.870743     -1.730614     -1.606841
   20 Atom       -1.625136     -1.746343     -1.884216
   21 Atom       -1.625052     -1.745679     -1.884726
   22 Atom       -1.729868     -1.840948     -1.959481
   23 Atom       -1.729844     -1.840320     -1.960030
   24 Atom       -2.072171     -1.731765     -1.689012
   25 Atom       -1.684368     -1.673829     -1.880868
   26 Atom       -1.684459     -1.674452     -1.880025
 -----------------------------------------------------
 -----------------------------------------------------
    Center         ---- Electric Field Gradient ----
                     XY            XZ            YZ
 -----------------------------------------------------
    1 Atom        0.075336     -0.000148      0.000215
    2 Atom        0.012050      0.000109      0.000438
    3 Atom        0.037261      0.137348     -0.053600
    4 Atom        0.036638     -0.137556      0.052713
    5 Atom       -0.136245      0.000025      0.000104
    6 Atom       -0.191748      0.000168      0.000219
    7 Atom       -0.175558      0.000422      0.001525
    8 Atom        0.223092     -0.000259     -0.000647
    9 Atom       -0.804799      0.000872     -0.002707
   10 Atom       -0.026235      0.000029      0.000176
   11 Atom        0.040387      0.178013     -0.059383
   12 Atom        0.039814     -0.178220      0.058510
   13 Atom       -0.179035      0.000237      0.000167
   14 Atom        0.094771      0.002944      0.007470
   15 Atom        0.048401     -0.174975      0.065065
   16 Atom       -0.186715     -0.001805     -0.007174
   17 Atom        0.094945     -0.003245     -0.006288
   18 Atom        0.048890      0.174792     -0.065810
   19 Atom       -0.186784      0.002537      0.007668
   20 Atom        0.001268      0.004107     -0.184001
   21 Atom        0.001261     -0.004101      0.183786
   22 Atom       -0.006623     -0.008750     -0.181340
   23 Atom       -0.006603      0.008760      0.181145
   24 Atom       -0.083907      0.000107      0.000038
   25 Atom        0.064571     -0.142730      0.122527
   26 Atom        0.065008      0.142645     -0.123057
 -----------------------------------------------------
 -----------------------------------------------------
    Center         ---- Electric Field Gradient ----
                   ----       Eigenvalues       ----
 -----------------------------------------------------
    1 Atom     -500.595837   -500.302022   -500.291358
    2 Atom    -8862.931541  -8862.878095  -8862.856800
    3 Atom     -500.626940   -500.313576   -500.308021
    4 Atom     -500.626801   -500.313508   -500.307994
    5 Atom     -500.713800   -500.418216   -500.370617
    6 Atom     -500.856018   -500.402044   -500.329417
    7 Atom    -1239.140984  -1237.249927  -1236.087886
    8 Atom     -501.618681   -501.316005   -500.856776
    9 Atom    -1239.349941  -1238.897823  -1236.551167
   10 Atom     -500.413677   -500.260177   -500.253959
   11 Atom       -2.006187     -1.614267     -1.605670
   12 Atom       -2.006264     -1.614388     -1.605752
   13 Atom       -1.997857     -1.606982     -1.596469
   14 Atom       -1.997066     -1.606541     -1.595803
   15 Atom       -2.000237     -1.608997     -1.597863
   16 Atom       -2.000299     -1.609586     -1.598401
   17 Atom       -1.997125     -1.606596     -1.595864
   18 Atom       -2.000236     -1.608993     -1.597862
   19 Atom       -2.000276     -1.609555     -1.598367
   20 Atom       -2.011814     -1.625349     -1.618532
   21 Atom       -2.011742     -1.625264     -1.618451
   22 Atom       -2.091327     -1.729537     -1.709433
   23 Atom       -2.091286     -1.729514     -1.709394
   24 Atom       -2.091729     -1.712207     -1.689012
   25 Atom       -2.012530     -1.617196     -1.609339
   26 Atom       -2.012484     -1.617155     -1.609297
 -----------------------------------------------------
 -----------------------------------------------------
    Center         ---- Electric Field Gradient ----
                       ( tensor representation )
                   3XX-RR        3YY-RR        3ZZ-RR
 -----------------------------------------------------
    1 Atom        0.085100     -0.179484      0.094384
    2 Atom        0.030014     -0.040729      0.010715
    3 Atom        0.013685      0.093441     -0.107126
    4 Atom        0.013425      0.093913     -0.107338
    5 Atom       -0.122401     -0.007859      0.130261
    6 Atom       -0.221344      0.021602      0.199742
    7 Atom       -1.631610      0.226566      1.405044
    8 Atom        0.123092      0.231767     -0.354859
    9 Atom       -0.311998      1.395625     -1.083627
   10 Atom        0.050880     -0.099973      0.049093
   11 Atom        0.018472      0.114240     -0.132712
   12 Atom        0.018310      0.114617     -0.132926
   13 Atom       -0.147021      0.009722      0.137300
   14 Atom        0.110597     -0.239833      0.129236
   15 Atom        0.007517      0.119859     -0.127376
   16 Atom       -0.134874      0.005600      0.129273
   17 Atom        0.110491     -0.239778      0.129287
   18 Atom        0.007618      0.119478     -0.127096
   19 Atom       -0.134677      0.005452      0.129225
   20 Atom        0.126763      0.005555     -0.132318
   21 Atom        0.126767      0.006140     -0.132907
   22 Atom        0.113565      0.002484     -0.116049
   23 Atom        0.113554      0.003078     -0.116632
   24 Atom       -0.241188      0.099218      0.141971
   25 Atom        0.061987      0.072526     -0.134513
   26 Atom        0.061853      0.071860     -0.133713
 -----------------------------------------------------
 -----------------------------------------------------
    Center         ---- Electric Field Gradient ----
                       ( tensor representation )
                   ----       Eigenvalues       ----
 -----------------------------------------------------
    1 Atom       -0.199431      0.094383      0.105048
    2 Atom       -0.042729      0.010717      0.032012
    3 Atom       -0.210761      0.102603      0.108158
    4 Atom       -0.210700      0.102593      0.108107
    5 Atom       -0.212923      0.082662      0.130261
    6 Atom       -0.326858      0.127116      0.199743
    7 Atom       -1.648051      0.243005      1.405046
    8 Atom       -0.354860     -0.052185      0.407045
    9 Atom       -1.083630     -0.631513      1.715143
   10 Atom       -0.104406      0.049094      0.055312
   11 Atom       -0.264146      0.127774      0.136371
   12 Atom       -0.264129      0.127747      0.136383
   13 Atom       -0.264087      0.126788      0.137300
   14 Atom       -0.263929      0.126596      0.137333
   15 Atom       -0.264538      0.126702      0.137836
   16 Atom       -0.264204      0.126509      0.137695
   17 Atom       -0.263930      0.126598      0.137331
   18 Atom       -0.264539      0.126704      0.137835
   19 Atom       -0.264210      0.126511      0.137699
   20 Atom       -0.259916      0.126549      0.133366
   21 Atom       -0.259923      0.126555      0.133368
   22 Atom       -0.247894      0.113895      0.133999
   23 Atom       -0.247888      0.113884      0.134004
   24 Atom       -0.260747      0.118776      0.141971
   25 Atom       -0.266175      0.129159      0.137016
   26 Atom       -0.266172      0.129157      0.137015
 -----------------------------------------------------
 Calling FoFJK, ICntrl=      2127 FMM=F ISym2X=0 I1Cent= 0 IOpClX= 0 NMat=1 NMatS=1 NMatT=0.
 ***** Axes restored to original set *****
 -------------------------------------------------------------------
 Center     Atomic                   Forces (Hartrees/Bohr)
 Number     Number              X              Y              Z
 -------------------------------------------------------------------
      1        6           0.001115210   -0.002224298    0.001845244
      2       15           0.004611424   -0.004098335    0.008107274
      3        6          -0.003264775    0.002262085    0.000772759
      4        6           0.002272454    0.002161836   -0.002496626
      5        6          -0.000036918   -0.009314115   -0.000122784
      6        6           0.013856292   -0.006293753    0.024175449
      7        8           0.008109965   -0.007078075    0.013983333
      8        6          -0.032677482    0.020295435   -0.056560290
      9        8           0.007787268   -0.005408648    0.013486502
     10        6           0.008374766    0.014248471    0.014434677
     11        1           0.013728147   -0.004145988    0.001414700
     12        1          -0.005606010   -0.004030895    0.012663095
     13        1          -0.006349498   -0.004851772   -0.011101523
     14        1          -0.000630328    0.013470800   -0.000084566
     15        1          -0.006436373   -0.004374166    0.010832399
     16        1          -0.006226589   -0.004467415   -0.011004626
     17        1           0.000235809    0.013468151   -0.000581234
     18        1           0.012597171   -0.004381552   -0.000162917
     19        1          -0.006413272   -0.004465862   -0.010900079
     20        1          -0.007943854    0.004335002    0.009479297
     21        1           0.012166617    0.004369754   -0.002142428
     22        1           0.009839822   -0.009831097   -0.003807049
     23        1          -0.008208560   -0.009889715    0.006599780
     24        1          -0.012947902    0.022934039   -0.022383008
     25        1          -0.009924310   -0.006330158    0.008088473
     26        1           0.011970925   -0.006359729   -0.004535853
 -------------------------------------------------------------------
 Cartesian Forces:  Max     0.056560290 RMS     0.011787224

 GradGradGradGradGradGradGradGradGradGradGradGradGradGradGradGradGradGrad
 Berny optimization.
 FormGI is forming the generalized inverse of G from B-inverse, IUseBI=4.
 GSVD:  received Info=                   1 from GESDD.
 Internal  Forces:  Max     0.151733781 RMS     0.018478760
 Search for a local minimum.
 Step number   1 out of a maximum of  137
 All quantities printed in internal units (Hartrees-Bohrs-Radians)
 Mixed Optimization -- RFO/linear search
 Second derivative matrix not updated -- first step.
 ITU=  0
     Eigenvalues ---    0.00318   0.00318   0.00318   0.00318   0.00462
     Eigenvalues ---    0.00647   0.01113   0.01665   0.02512   0.03957
     Eigenvalues ---    0.04803   0.04804   0.04809   0.05006   0.05315
     Eigenvalues ---    0.05771   0.05771   0.05771   0.05775   0.05775
     Eigenvalues ---    0.05775   0.05972   0.07469   0.07473   0.07739
     Eigenvalues ---    0.11359   0.11745   0.13759   0.14415   0.14429
     Eigenvalues ---    0.16000   0.16000   0.16000   0.16000   0.16000
     Eigenvalues ---    0.16000   0.16000   0.16000   0.16000   0.16000
     Eigenvalues ---    0.16000   0.16000   0.21660   0.21660   0.21660
     Eigenvalues ---    0.21660   0.21952   0.22077   0.25000   0.25000
     Eigenvalues ---    0.25000   0.30079   0.31451   0.32284   0.32284
     Eigenvalues ---    0.32284   0.32284   0.32284   0.32284   0.32284
     Eigenvalues ---    0.32284   0.32284   0.32284   0.32284   0.32284
     Eigenvalues ---    0.32284   0.32284   0.32284   0.32285   0.45291
     Eigenvalues ---    0.57656   1.00904
 RFO step:  Lambda=-1.14160216D-01 EMin= 3.17651655D-03
 Linear search not attempted -- first point.
 Maximum step size (   0.300) exceeded in Quadratic search.
    -- Step size scaled by   0.544
 Iteration  1 RMS(Cart)=  0.17294648 RMS(Int)=  0.01431541
 Iteration  2 RMS(Cart)=  0.13447326 RMS(Int)=  0.00449074
 Iteration  3 RMS(Cart)=  0.00791257 RMS(Int)=  0.00008825
 Iteration  4 RMS(Cart)=  0.00001769 RMS(Int)=  0.00008785
 Iteration  5 RMS(Cart)=  0.00000000 RMS(Int)=  0.00008785
 Variable       Old X    -DE/DX   Delta X   Delta X   Delta X     New X
                                 (Linear)    (Quad)   (Total)
    R1        3.52245  -0.01526   0.00000  -0.02508  -0.02508   3.49736
    R2        2.10327  -0.01433   0.00000  -0.01783  -0.01783   2.08544
    R3        2.10327  -0.01433   0.00000  -0.01783  -0.01783   2.08544
    R4        2.10327  -0.01367   0.00000  -0.01702  -0.01702   2.08625
    R5        3.52245  -0.01791   0.00000  -0.02944  -0.02944   3.49301
    R6        3.52245  -0.01790   0.00000  -0.02943  -0.02943   3.49302
    R7        3.52245  -0.00264   0.00000  -0.00435  -0.00435   3.51810
    R8        2.10327  -0.01347   0.00000  -0.01676  -0.01676   2.08650
    R9        2.10327  -0.01334   0.00000  -0.01660  -0.01660   2.08667
   R10        2.10327  -0.01341   0.00000  -0.01669  -0.01669   2.08658
   R11        2.10326  -0.01347   0.00000  -0.01676  -0.01676   2.08651
   R12        2.10327  -0.01334   0.00000  -0.01660  -0.01660   2.08667
   R13        2.10326  -0.01341   0.00000  -0.01669  -0.01669   2.08657
   R14        2.87805   0.00965   0.00000   0.01264   0.01264   2.89070
   R15        2.10327  -0.01256   0.00000  -0.01563  -0.01563   2.08763
   R16        2.10326  -0.01257   0.00000  -0.01564  -0.01564   2.08762
   R17        2.64940   0.02567   0.00000   0.02462   0.02462   2.67401
   R18        2.10326  -0.01372   0.00000  -0.01707  -0.01707   2.08619
   R19        2.10326  -0.01374   0.00000  -0.01710  -0.01710   2.08617
   R20        2.52845   0.06522   0.00000   0.05135   0.05135   2.57980
   R21        2.28279  -0.01449   0.00000  -0.00701  -0.00701   2.27578
   R22        2.85160   0.02114   0.00000   0.02682   0.02682   2.87842
   R23        2.10326  -0.02631   0.00000  -0.03274  -0.03274   2.07053
   R24        2.10326  -0.01401   0.00000  -0.01743  -0.01743   2.08583
   R25        2.10327  -0.01402   0.00000  -0.01745  -0.01745   2.08582
    A1        1.91114   0.00115   0.00000   0.00259   0.00258   1.91372
    A2        1.91012   0.00133   0.00000   0.00293   0.00292   1.91304
    A3        1.91047  -0.00128   0.00000  -0.00314  -0.00313   1.90734
    A4        1.91012   0.00003   0.00000   0.00126   0.00125   1.91137
    A5        1.91047  -0.00056   0.00000  -0.00171  -0.00171   1.90876
    A6        1.91148  -0.00067   0.00000  -0.00193  -0.00193   1.90956
    A7        1.91114  -0.00243   0.00000  -0.00543  -0.00543   1.90570
    A8        1.91012  -0.00233   0.00000  -0.00521  -0.00521   1.90491
    A9        1.91047   0.00631   0.00000   0.01582   0.01583   1.92630
   A10        1.91012   0.00224   0.00000   0.00217   0.00214   1.91226
   A11        1.91047  -0.00185   0.00000  -0.00358  -0.00357   1.90689
   A12        1.91148  -0.00194   0.00000  -0.00378  -0.00377   1.90772
   A13        1.91114  -0.00097   0.00000  -0.00198  -0.00198   1.90916
   A14        1.91012  -0.00016   0.00000  -0.00033  -0.00033   1.90979
   A15        1.91047   0.00038   0.00000   0.00082   0.00082   1.91129
   A16        1.91012   0.00040   0.00000   0.00064   0.00064   1.91076
   A17        1.91047   0.00032   0.00000   0.00066   0.00066   1.91113
   A18        1.91148   0.00003   0.00000   0.00018   0.00018   1.91166
   A19        1.91113  -0.00093   0.00000  -0.00190  -0.00190   1.90924
   A20        1.91012  -0.00016   0.00000  -0.00033  -0.00033   1.90979
   A21        1.91047   0.00034   0.00000   0.00075   0.00075   1.91122
   A22        1.91012   0.00039   0.00000   0.00063   0.00062   1.91075
   A23        1.91047   0.00032   0.00000   0.00066   0.00066   1.91113
   A24        1.91149   0.00004   0.00000   0.00019   0.00019   1.91168
   A25        1.91114   0.02422   0.00000   0.04141   0.04142   1.95256
   A26        1.91012  -0.00832   0.00000  -0.01450  -0.01466   1.89546
   A27        1.91047  -0.00833   0.00000  -0.01452  -0.01467   1.89580
   A28        1.91012  -0.00501   0.00000  -0.00504  -0.00496   1.90516
   A29        1.91047  -0.00504   0.00000  -0.00514  -0.00506   1.90541
   A30        1.91148   0.00250   0.00000  -0.00219  -0.00240   1.90908
   A31        1.91114  -0.02316   0.00000  -0.03876  -0.03881   1.87233
   A32        1.91012   0.00156   0.00000  -0.00074  -0.00067   1.90945
   A33        1.91047   0.00153   0.00000  -0.00083  -0.00076   1.90971
   A34        1.91012   0.00996   0.00000   0.01768   0.01745   1.92757
   A35        1.91047   0.00995   0.00000   0.01762   0.01738   1.92785
   A36        1.91148   0.00014   0.00000   0.00501   0.00484   1.91633
   A37        1.91812   0.15173   0.00000   0.22658   0.22658   2.14470
   A38        2.09440  -0.04190   0.00000  -0.06258  -0.06258   2.03182
   A39        2.09440   0.06585   0.00000   0.09834   0.09834   2.19273
   A40        2.09439  -0.02395   0.00000  -0.03576  -0.03576   2.05863
   A41        1.91113   0.03710   0.00000   0.07703   0.07686   1.98800
   A42        1.91012  -0.00734   0.00000  -0.01628  -0.01657   1.89355
   A43        1.91047  -0.00739   0.00000  -0.01638  -0.01667   1.89380
   A44        1.91012  -0.01004   0.00000  -0.01647  -0.01663   1.89349
   A45        1.91047  -0.01007   0.00000  -0.01653  -0.01670   1.89377
   A46        1.91148  -0.00224   0.00000  -0.01133  -0.01176   1.89973
    D1        3.14159   0.00087   0.00000   0.00439   0.00439  -3.13721
    D2       -1.04783   0.00070   0.00000   0.00054   0.00055  -1.04728
    D3        1.04719   0.00076   0.00000   0.00241   0.00241   1.04961
    D4        1.04783  -0.00068   0.00000  -0.00052  -0.00054   1.04729
    D5        3.14159  -0.00086   0.00000  -0.00438  -0.00437   3.13722
    D6       -1.04657  -0.00080   0.00000  -0.00251  -0.00251  -1.04908
    D7       -1.04719   0.00010   0.00000   0.00196   0.00195  -1.04524
    D8        1.04657  -0.00007   0.00000  -0.00189  -0.00188   1.04469
    D9       -3.14159  -0.00001   0.00000  -0.00002  -0.00002   3.14157
   D10        3.14159  -0.00262   0.00000  -0.00716  -0.00716   3.13443
   D11       -1.04783  -0.00281   0.00000  -0.00778  -0.00779  -1.05562
   D12        1.04719  -0.00265   0.00000  -0.00727  -0.00727   1.03992
   D13        1.04783   0.00036   0.00000   0.00121   0.00121   1.04905
   D14       -3.14159   0.00016   0.00000   0.00059   0.00059  -3.14100
   D15       -1.04657   0.00032   0.00000   0.00111   0.00111  -1.04546
   D16       -1.04719   0.00249   0.00000   0.00670   0.00670  -1.04049
   D17        1.04657   0.00230   0.00000   0.00608   0.00608   1.05265
   D18       -3.14159   0.00246   0.00000   0.00660   0.00660  -3.13500
   D19        3.14159   0.00264   0.00000   0.00722   0.00722  -3.13437
   D20        1.04783   0.00283   0.00000   0.00781   0.00782   1.05565
   D21       -1.04719   0.00267   0.00000   0.00732   0.00733  -1.03987
   D22       -1.04721  -0.00040   0.00000  -0.00129  -0.00129  -1.04850
   D23       -3.14097  -0.00021   0.00000  -0.00069  -0.00069   3.14152
   D24        1.04719  -0.00036   0.00000  -0.00118  -0.00118   1.04601
   D25        1.04719  -0.00247   0.00000  -0.00666  -0.00666   1.04053
   D26       -1.04657  -0.00228   0.00000  -0.00606  -0.00606  -1.05263
   D27        3.14159  -0.00244   0.00000  -0.00655  -0.00655   3.13504
   D28        0.00000  -0.00004   0.00000  -0.00009  -0.00009  -0.00009
   D29        2.09376   0.00355   0.00000   0.01018   0.01008   2.10384
   D30       -2.09440  -0.00359   0.00000  -0.01026  -0.01016  -2.10456
   D31       -2.09481   0.00021   0.00000  -0.00094  -0.00094  -2.09575
   D32       -0.00105   0.00379   0.00000   0.00933   0.00923   0.00818
   D33        2.09397  -0.00334   0.00000  -0.01111  -0.01101   2.08296
   D34        2.09419  -0.00021   0.00000   0.00091   0.00091   2.09510
   D35       -2.09524   0.00337   0.00000   0.01119   0.01109  -2.08415
   D36       -0.00021  -0.00376   0.00000  -0.00925  -0.00915  -0.00937
   D37       -3.14159  -0.00001   0.00000  -0.00004  -0.00003   3.14156
   D38       -1.04783  -0.00102   0.00000  -0.00254  -0.00248  -1.05032
   D39        1.04719   0.00104   0.00000   0.00263   0.00257   1.04976
   D40        1.04783  -0.00156   0.00000  -0.00452  -0.00455   1.04328
   D41        3.14159  -0.00257   0.00000  -0.00703  -0.00700   3.13459
   D42       -1.04657  -0.00051   0.00000  -0.00185  -0.00194  -1.04851
   D43       -1.04719   0.00153   0.00000   0.00439   0.00443  -1.04276
   D44        1.04657   0.00052   0.00000   0.00188   0.00198   1.04855
   D45        3.14159   0.00258   0.00000   0.00706   0.00704  -3.13456
   D46       -3.14159   0.00001   0.00000   0.00003   0.00003  -3.14157
   D47        1.04783   0.00616   0.00000   0.01381   0.01408   1.06192
   D48       -1.04719  -0.00620   0.00000  -0.01393  -0.01421  -1.06140
   D49        3.14159  -0.00001   0.00000  -0.00004  -0.00004   3.14155
   D50        0.00000  -0.00001   0.00000  -0.00004  -0.00004  -0.00004
   D51        0.00000  -0.00001   0.00000  -0.00004  -0.00004  -0.00004
   D52        2.09376   0.00589   0.00000   0.01694   0.01683   2.11059
   D53       -2.09440  -0.00588   0.00000  -0.01693  -0.01681  -2.11121
   D54       -3.14159  -0.00001   0.00000  -0.00004  -0.00004   3.14155
   D55       -1.04783   0.00588   0.00000   0.01694   0.01682  -1.03101
   D56        1.04719  -0.00588   0.00000  -0.01693  -0.01682   1.03038
         Item               Value     Threshold  Converged?
 Maximum Force            0.151734     0.000450     NO 
 RMS     Force            0.018479     0.000300     NO 
 Maximum Displacement     1.185921     0.001800     NO 
 RMS     Displacement     0.302073     0.001200     NO 
 Predicted change in Energy=-5.050368D-02
 GradGradGradGradGradGradGradGradGradGradGradGradGradGradGradGradGradGrad

                          Input orientation:                          
 ---------------------------------------------------------------------
 Center     Atomic      Atomic             Coordinates (Angstroms)
 Number     Number       Type             X           Y           Z
 ---------------------------------------------------------------------
      1          6           0        0.597229    1.129427    1.703403
      2         15           0        0.496797   -0.710400    1.529817
      3          6           0        2.206961   -1.409420    1.471814
      4          6           0       -0.408015   -1.407854    2.982934
      5          6           0       -0.405868   -1.165458   -0.033528
      6          6           0       -0.855678    0.071752   -0.812590
      7          8           0       -1.525663   -0.382975   -1.973041
      8          6           0       -2.060787    0.464491   -2.899937
      9          8           0       -2.605532   -0.048508   -3.843545
     10          6           0       -2.024429    1.985946   -2.836892
     11          1           0       -0.420417    1.554471    1.743352
     12          1           0        1.140328    1.553659    0.841470
     13          1           0        1.134957    1.378927    2.634749
     14          1           0        2.150828   -2.507925    1.375682
     15          1           0        2.745476   -0.990849    0.603427
     16          1           0        2.744002   -1.147659    2.400393
     17          1           0       -0.463820   -2.506414    2.887229
     18          1           0       -1.429092   -0.988754    3.015377
     19          1           0        0.128352   -1.145574    3.911753
     20          1           0        0.269188   -1.767594   -0.667685
     21          1           0       -1.292363   -1.768073    0.233667
     22          1           0       -1.536444    0.672915   -0.184974
     23          1           0        0.028004    0.673373   -1.088033
     24          1           0       -1.513615    2.381547   -1.951976
     25          1           0       -1.507092    2.361363   -3.736750
     26          1           0       -3.062296    2.361612   -2.839493
 ---------------------------------------------------------------------
                    Distance matrix (angstroms):
                    1          2          3          4          5
     1  C    0.000000
     2  P    1.850725   0.000000
     3  C    3.015065   1.848419   0.000000
     4  C    3.014218   1.848424   3.020195   0.000000
     5  C    3.047890   1.861701   3.025301   3.026186   0.000000
     6  C    3.091899   2.815639   4.097821   4.098248   1.529692
     7  O    4.506692   4.058025   5.181998   5.182780   2.372327
     8  C    5.357044   5.248269   6.390416   6.391048   3.689416
     9  O    6.512591   6.239837   7.298302   7.299159   4.538979
    10  C    5.312343   5.717955   6.928067   6.928278   4.517736
    11  H    1.103567   2.452859   3.970075   3.211244   3.248928
    12  H    1.103565   2.452329   3.211679   3.969104   3.248067
    13  H    1.103996   2.448144   3.205696   3.204394   3.995965
    14  H    3.968803   2.447585   1.104131   3.215756   3.213220
    15  H    3.212551   2.448144   1.104218   3.972461   3.219808
    16  H    3.206174   2.449291   1.104170   3.215939   3.980699
    17  H    3.968200   2.447655   3.215566   1.104132   3.214396
    18  H    3.211533   2.448146   3.972458   1.104218   3.220875
    19  H    3.205041   2.449234   3.216136   1.104167   3.981335
    20  H    3.757978   2.449179   2.908729   3.730286   1.104727
    21  H    3.758482   2.449443   3.729196   2.910377   1.104723
    22  H    2.885642   2.998022   4.592836   3.954566   2.163505
    23  H    2.885154   2.997955   3.954580   4.592863   2.163683
    24  H    4.402869   5.071960   6.319530   6.319434   4.181960
    25  H    5.961635   6.417790   7.425775   7.782616   5.231158
    26  H    5.962240   6.418354   7.782874   7.426624   5.231661
                    6          7          8          9         10
     6  C    0.000000
     7  O    1.415027   0.000000
     8  C    2.442037   1.365171   0.000000
     9  O    3.501876   2.185582   1.204289   0.000000
    10  C    3.021243   2.570367   1.523195   2.343082   0.000000
    11  H    2.986763   4.334379   5.043709   6.209484   4.872131
    12  H    2.985968   4.333536   5.042970   6.208685   4.871643
    13  H    4.189927   5.604902   6.456138   7.615584   6.347365
    14  H    4.525743   5.407952   6.697303   7.477435   7.441332
    15  H    4.012797   5.024970   6.123049   7.021172   6.591592
    16  H    4.976738   6.159684   7.333384   8.295325   7.745099
    17  H    4.526495   5.409134   6.698348   7.478740   7.441932
    18  H    4.013329   5.025994   6.123879   7.022314   6.591837
    19  H    4.976908   6.160205   7.333741   8.295922   7.745004
    20  H    2.160906   2.615840   3.923511   4.615773   4.904610
    21  H    2.161089   2.615815   3.923556   4.615732   4.904784
    22  H    1.103967   2.076585   2.772977   3.879246   2.999141
    23  H    1.103953   2.076774   2.773026   3.879365   2.998972
    24  H    2.658239   2.764628   2.207517   3.267336   1.095677
    25  H    3.770592   3.262269   2.145917   2.650557   1.103775
    26  H    3.771068   3.262627   2.146100   2.650553   1.103767
[...]
    26  H   -0.000042  -0.000030  -0.000030  -0.000036  -0.000069   0.000164
              19         20         21         22         23         24
     1  C   -0.004013  -0.054411   0.070312  -0.088838   0.102717   0.005694
     2  P   -0.100764  -0.228907  -0.228521  -0.038681  -0.037744  -0.000550
     3  C    0.006571   0.043726   0.043631  -0.007415  -0.007581   0.001343
     4  C    0.395715   0.070328  -0.054487   0.102965  -0.088944  -0.003111
     5  C    0.029117   0.508395   0.507510  -0.011136  -0.013357   0.029053
     6  C   -0.010656  -0.076607  -0.076012   0.319869   0.321716  -0.010952
     7  O    0.000505  -0.010606  -0.010554  -0.056439  -0.056394   0.016997
     8  C   -0.000286   0.003807   0.003786   0.002419   0.002391  -0.055262
     9  O   -0.000008  -0.000840  -0.000830   0.006454   0.006534   0.000083
    10  C   -0.000385  -0.011856  -0.011782   0.009271   0.009628   0.390936
    11  H    0.004106   0.007662   0.001956  -0.000578  -0.005164   0.000571
    12  H    0.002063  -0.005478   0.003868  -0.001606  -0.000328   0.000251
    13  H   -0.010106  -0.001244  -0.001665   0.000614   0.001761   0.000062
    14  H    0.006897   0.010115  -0.005313   0.006660  -0.005186  -0.000284
    15  H    0.000459  -0.005302   0.010098  -0.005175   0.006644   0.000277
    16  H   -0.008944   0.002048   0.002046  -0.000617  -0.000616   0.000078
    17  H   -0.020681   0.003860  -0.005508  -0.000294  -0.001609  -0.000182
    18  H   -0.024188   0.001947   0.007690  -0.005275  -0.000496  -0.001595
    19  H    0.488713  -0.001666  -0.001253   0.001771   0.000598   0.000032
    20  H   -0.001666   0.510583  -0.028680   0.041002  -0.068380  -0.002540
    21  H   -0.001253  -0.028680   0.510591  -0.068372   0.040973   0.004575
    22  H    0.001771   0.041002  -0.068372   0.892738  -0.276292  -0.039836
    23  H    0.000598  -0.068380   0.040973  -0.276292   0.892257   0.025311
    24  H    0.000032  -0.002540   0.004575  -0.039836   0.025311   0.580271
    25  H    0.000063   0.004588  -0.002540   0.025337  -0.039965  -0.075485
    26  H   -0.000042  -0.000350  -0.000343   0.003471   0.003522  -0.014687
              25         26
     1  C   -0.003081  -0.000853
     2  P   -0.000742  -0.000124
     3  C    0.001341  -0.000909
     4  C    0.005725  -0.000851
     5  C    0.029363  -0.023359
     6  C   -0.010629   0.000333
     7  O    0.016796   0.000270
     8  C   -0.054916  -0.016098
     9  O    0.000056  -0.009041
    10  C    0.390326   0.391851
    11  H   -0.001602   0.000165
    12  H   -0.000176  -0.000070
    13  H    0.000033  -0.000042
    14  H    0.000278  -0.000030
    15  H   -0.000284  -0.000030
    16  H    0.000078  -0.000036
    17  H    0.000252  -0.000069
    18  H    0.000572   0.000164
    19  H    0.000063  -0.000042
    20  H    0.004588  -0.000350
    21  H   -0.002540  -0.000343
    22  H    0.025337   0.003471
    23  H   -0.039965   0.003522
    24  H   -0.075485  -0.014687
    25  H    0.580686  -0.014860
    26  H   -0.014860   0.428903
 Mulliken charges:
               1
     1  C   -0.409681
     2  P   -0.927032
     3  C   -0.194991
     4  C   -0.410188
     5  C    0.660154
     6  C   -0.930465
     7  O   -0.066479
     8  C    0.263291
     9  O   -0.231376
    10  C   -0.445315
    11  H    0.229311
    12  H    0.242921
    13  H    0.246414
    14  H    0.253654
    15  H    0.253644
    16  H    0.243117
    17  H    0.242833
    18  H    0.229343
    19  H    0.246383
    20  H    0.288806
    21  H    0.288825
    22  H    0.187982
    23  H    0.188000
    24  H    0.148948
    25  H    0.148784
    26  H    0.253115
 Sum of Mulliken charges =   1.00000
 Mulliken charges with hydrogens summed into heavy atoms:
               1
     1  C    0.308966
     2  P   -0.927032
     3  C    0.555425
     4  C    0.308371
     5  C    1.237785
     6  C   -0.554483
     7  O   -0.066479
     8  C    0.263291
     9  O   -0.231376
    10  C    0.105533
 Electronic spatial extent (au):  <R**2>=           2779.5138
 Charge=              1.0000 electrons
 Dipole moment (field-independent basis, Debye):
    X=             10.9081    Y=              3.6128    Z=             -0.0004  Tot=             11.4908
 Quadrupole moment (field-independent basis, Debye-Ang):
   XX=            -46.1165   YY=            -61.9306   ZZ=            -59.1659
   XY=            -13.2673   XZ=             -0.0005   YZ=              0.0007
 Traceless Quadrupole moment (field-independent basis, Debye-Ang):
   XX=              9.6211   YY=             -6.1929   ZZ=             -3.4282
   XY=            -13.2673   XZ=             -0.0005   YZ=              0.0007
 Octapole moment (field-independent basis, Debye-Ang**2):
  XXX=            117.8037  YYY=             -0.4470  ZZZ=             -0.0022  XYY=             19.6606
  XXY=             44.0422  XXZ=              0.0073  XZZ=             11.4295  YZZ=              1.4844
  YYZ=              0.0036  XYZ=              0.0002
 Hexadecapole moment (field-independent basis, Debye-Ang**3):
 XXXX=          -2707.3497 YYYY=           -432.1835 ZZZZ=           -278.4729 XXXY=           -187.5379
 XXXZ=             -0.0218 YYYX=            -12.5997 YYYZ=              0.0165 ZZZX=             -0.0134
 ZZZY=             -0.0055 XXYY=           -515.9969 XXZZ=           -481.3524 YYZZ=           -110.8544
 XXYZ=             -0.0087 YYXZ=              0.0076 ZZXY=              7.6180
 N-N= 6.512763566927D+02 E-N=-3.094714135842D+03  KE= 7.657231201599D+02

 **********************************************************************

            Electrostatic Properties Using The SCF Density

 **********************************************************************

       Atomic Center    1 is at   2.285360  1.014049 -1.479709
       Atomic Center    2 is at   2.051096 -0.009294  0.000025
       Atomic Center    3 is at   3.272944 -1.348278  0.000760
       Atomic Center    4 is at   2.285437  1.015952  1.478433
       Atomic Center    5 is at   0.391464 -0.765955  0.000663
       Atomic Center    6 is at  -0.806464  0.191774 -0.000424
       Atomic Center    7 is at  -1.934219 -0.671945  0.000402
       Atomic Center    8 is at  -3.244175 -0.196650  0.000040
       Atomic Center    9 is at  -4.114905 -1.009234 -0.000210
       Atomic Center   10 is at  -3.440436  1.298915  0.000114
       Atomic Center   11 is at   1.587549  1.853019 -1.474606
       Atomic Center   12 is at   2.117858  0.414506 -2.376754
       Atomic Center   13 is at   3.304880  1.404718 -1.498903
       Atomic Center   14 is at   3.144019 -1.968111  0.890165
       Atomic Center   15 is at   3.143732 -1.969229 -0.887820
       Atomic Center   16 is at   4.281339 -0.929719  0.000324
       Atomic Center   17 is at   2.117365  0.417731  2.376250
       Atomic Center   18 is at   1.588031  1.855248  1.471933
       Atomic Center   19 is at   3.305134  1.406167  1.497411
       Atomic Center   20 is at   0.333282 -1.416758 -0.877492
       Atomic Center   21 is at   0.333248 -1.414893  0.880205
       Atomic Center   22 is at  -0.799867  0.831004  0.889005
       Atomic Center   23 is at  -0.799790  0.829020 -0.891282
       Atomic Center   24 is at  -2.993426  1.758251  0.885941
       Atomic Center   25 is at  -2.992602  1.758474 -0.885186
       Atomic Center   26 is at  -4.508982  1.500567 -0.000359
 -----------------------------------------------------------------

              Electrostatic Properties (Atomic Units)

 -----------------------------------------------------------------
    Center     Electric         -------- Electric Field --------
               Potential          X             Y             Z
 -----------------------------------------------------------------
    1 Atom    -14.582407      0.000091     -0.001022      0.000875
    2 Atom    -53.931076     -0.000512     -0.000479      0.000000
    3 Atom    -14.584477     -0.000645      0.000631      0.000000
    4 Atom    -14.582407      0.000092     -0.001023     -0.000875
    5 Atom    -14.580733     -0.001009      0.001690     -0.000002
    6 Atom    -14.548567      0.005822      0.006784     -0.000007
    7 Atom    -22.209405      0.001842     -0.043794      0.000032
    8 Atom    -14.533948     -0.003944      0.014102     -0.000003
    9 Atom    -22.280557     -0.040273     -0.036533     -0.000012
   10 Atom    -14.649440     -0.002908      0.000435     -0.000001
   11 Atom     -0.911359     -0.011598      0.014779     -0.000744
   12 Atom     -0.912048     -0.002655     -0.009595     -0.015855
   13 Atom     -0.911780      0.017301      0.007102     -0.001071
   14 Atom     -0.914081     -0.001476     -0.011191      0.014990
   15 Atom     -0.914081     -0.001479     -0.011213     -0.014976
   16 Atom     -0.913714      0.017646      0.006346     -0.000006
   17 Atom     -0.912049     -0.002664     -0.009573      0.015869
   18 Atom     -0.911359     -0.011593      0.014786      0.000723
   19 Atom     -0.911782      0.017304      0.007096      0.001065
   20 Atom     -0.921518     -0.001702     -0.011500     -0.014628
   21 Atom     -0.921512     -0.001708     -0.011468      0.014647
   22 Atom     -0.950808     -0.000830      0.010386      0.014952
   23 Atom     -0.950814     -0.000826      0.010352     -0.014972
   24 Atom     -0.976697      0.006748      0.008164      0.014694
   25 Atom     -0.976698      0.006760      0.008169     -0.014681
   26 Atom     -0.993369     -0.018721      0.003643     -0.000007
 -----------------------------------------------------------------
 -----------------------------------------------------
    Center         ---- Electric Field Gradient ----
                     XX            YY            ZZ
 -----------------------------------------------------
    1 Atom     -500.292020   -500.364906   -500.450991
    2 Atom    -8862.320957  -8862.336464  -8862.371606
    3 Atom     -500.414732   -500.434087   -500.290781
    4 Atom     -500.292018   -500.365209   -500.450706
    5 Atom     -500.653014   -500.495884   -500.388720
    6 Atom     -500.628032   -500.383478   -500.107600
    7 Atom    -1239.062133  -1236.996960  -1235.907372
    8 Atom     -501.370020   -500.959020   -501.678742
    9 Atom    -1237.884838  -1237.574343  -1239.413107
   10 Atom     -500.196307   -500.415872   -500.294525
   11 Atom       -1.823403     -1.897501     -1.638924
   12 Atom       -1.637451     -1.775551     -1.928903
   13 Atom       -2.023969     -1.684041     -1.634070
   14 Atom       -1.639810     -1.770583     -1.930960
   15 Atom       -1.639853     -1.771115     -1.930423
   16 Atom       -2.010161     -1.708249     -1.626145
   17 Atom       -1.637536     -1.774966     -1.929439
   18 Atom       -1.823180     -1.897703     -1.638939
   19 Atom       -2.024112     -1.683920     -1.634059
   20 Atom       -1.652749     -1.792279     -1.929210
   21 Atom       -1.652747     -1.791378     -1.930080
   22 Atom       -1.728512     -1.858175     -1.997017
   23 Atom       -1.728512     -1.857250     -1.997928
   24 Atom       -1.736603     -1.739238     -1.952394
   25 Atom       -1.736911     -1.739335     -1.952046
   26 Atom       -2.096752     -1.678418     -1.654469
 -----------------------------------------------------
 -----------------------------------------------------
    Center         ---- Electric Field Gradient ----
                     XY            XZ            YZ
 -----------------------------------------------------
    1 Atom       -0.017347      0.029590      0.115003
    2 Atom       -0.003473     -0.000016     -0.000019
    3 Atom        0.130772     -0.000061      0.000065
    4 Atom       -0.017379     -0.029573     -0.115115
    5 Atom       -0.074912      0.000063      0.000136
    6 Atom       -0.190305      0.000173      0.000295
    7 Atom       -0.563677      0.000685      0.001401
    8 Atom        0.185737      0.000045      0.000079
    9 Atom       -1.095147      0.000091     -0.000125
   10 Atom        0.029576      0.000061      0.000006
   11 Atom        0.223775      0.008940     -0.003169
   12 Atom       -0.041361     -0.056620     -0.201702
   13 Atom       -0.147735     -0.000301      0.005196
   14 Atom       -0.027695      0.050860      0.205707
   15 Atom       -0.027825     -0.050921     -0.205902
   16 Atom       -0.161790      0.000167      0.000080
   17 Atom       -0.041415      0.056866      0.201454
   18 Atom        0.223725     -0.009309      0.003605
   19 Atom       -0.147575      0.000379     -0.005172
   20 Atom       -0.007906     -0.012455     -0.208818
   21 Atom       -0.007894      0.012484      0.208516
   22 Atom       -0.006764     -0.002176     -0.207932
   23 Atom       -0.006776      0.002219      0.207614
   24 Atom       -0.074550     -0.156428     -0.152003
   25 Atom       -0.074726      0.156612      0.151981
   26 Atom        0.083971     -0.000197      0.000036
 -----------------------------------------------------
 -----------------------------------------------------
    Center         ---- Electric Field Gradient ----
                   ----       Eigenvalues       ----
 -----------------------------------------------------
    1 Atom     -500.535546   -500.288966   -500.283405
    2 Atom    -8862.371606  -8862.337206  -8862.320214
    3 Atom     -500.555539   -500.293280   -500.290781
    4 Atom     -500.535557   -500.288974   -500.283402
    5 Atom     -500.683004   -500.465893   -500.388720
    6 Atom     -500.731958   -500.279553   -500.107600
    7 Atom    -1239.205968  -1236.853127  -1235.907371
    8 Atom     -501.678742   -501.441519   -500.887520
    9 Atom    -1239.413107  -1238.835687  -1236.623495
   10 Atom     -500.419786   -500.294525   -500.192393
   11 Atom       -2.087423     -1.641620     -1.630785
   12 Atom       -2.079135     -1.636781     -1.625990
   13 Atom       -2.079207     -1.637061     -1.625813
   14 Atom       -2.079114     -1.637014     -1.625225
   15 Atom       -2.079130     -1.637026     -1.625234
   16 Atom       -2.080482     -1.637928     -1.626145
   17 Atom       -2.079154     -1.636790     -1.625999
   18 Atom       -2.087420     -1.641619     -1.630783
   19 Atom       -2.079212     -1.637063     -1.625816
   20 Atom       -2.081006     -1.652315     -1.640917
   21 Atom       -2.080983     -1.652311     -1.640912
   22 Atom       -2.146889     -1.729284     -1.707531
   23 Atom       -2.146874     -1.729282     -1.707534
   24 Atom       -2.111480     -1.664149     -1.652606
   25 Atom       -2.111495     -1.664176     -1.652621
   26 Atom       -2.112978     -1.662192     -1.654469
 -----------------------------------------------------
 -----------------------------------------------------
    Center         ---- Electric Field Gradient ----
                       ( tensor representation )
                   3XX-RR        3YY-RR        3ZZ-RR
 -----------------------------------------------------
    1 Atom        0.077285      0.004400     -0.081685
    2 Atom        0.022052      0.006545     -0.028597
    3 Atom       -0.034865     -0.054221      0.089086
    4 Atom        0.077293      0.004102     -0.081395
    5 Atom       -0.140474      0.016655      0.123819
    6 Atom       -0.254995     -0.010442      0.265437
    7 Atom       -1.739978      0.325195      1.414783
    8 Atom       -0.034093      0.376907     -0.342815
    9 Atom        0.405924      0.716420     -1.122344
   10 Atom        0.105928     -0.113637      0.007710
   11 Atom       -0.036794     -0.110892      0.147685
   12 Atom        0.143184      0.005084     -0.148268
   13 Atom       -0.243275      0.096652      0.146624
   14 Atom        0.140641      0.009868     -0.150509
   15 Atom        0.140611      0.009349     -0.149960
   16 Atom       -0.228643      0.073269      0.155373
   17 Atom        0.143111      0.005681     -0.148792
   18 Atom       -0.036573     -0.111095      0.147669
   19 Atom       -0.243415      0.096777      0.146638
   20 Atom        0.138664     -0.000866     -0.137798
   21 Atom        0.138655      0.000024     -0.138678
   22 Atom        0.132722      0.003060     -0.135783
   23 Atom        0.132718      0.003980     -0.136698
   24 Atom        0.072808      0.070174     -0.142982
   25 Atom        0.072520      0.070096     -0.142616
   26 Atom       -0.286872      0.131462      0.155410
 -----------------------------------------------------
 -----------------------------------------------------
    Center         ---- Electric Field Gradient ----
                       ( tensor representation )
                   ----       Eigenvalues       ----
 -----------------------------------------------------
    1 Atom       -0.166240      0.080340      0.085901
    2 Atom       -0.028597      0.005803      0.022795
    3 Atom       -0.175672      0.086586      0.089086
    4 Atom       -0.166246      0.080337      0.085909
    5 Atom       -0.170465      0.046646      0.123819
    6 Atom       -0.358921      0.093484      0.265437
    7 Atom       -1.883813      0.469028      1.414785
    8 Atom       -0.342815     -0.105592      0.448407
    9 Atom       -1.122344     -0.544924      1.667268
   10 Atom       -0.117551      0.007709      0.109842
   11 Atom       -0.300814      0.144990      0.155824
   12 Atom       -0.298500      0.143855      0.154645
   13 Atom       -0.298513      0.143633      0.154881
   14 Atom       -0.298663      0.143437      0.155226
   15 Atom       -0.298666      0.143437      0.155229
   16 Atom       -0.298964      0.143590      0.155373
   17 Atom       -0.298506      0.143858      0.154649
   18 Atom       -0.300813      0.144988      0.155824
   19 Atom       -0.298515      0.143634      0.154881
   20 Atom       -0.289594      0.139098      0.150496
   21 Atom       -0.289581      0.139091      0.150490
   22 Atom       -0.285654      0.131950      0.153703
   23 Atom       -0.285644      0.131948      0.153696
   24 Atom       -0.302068      0.145262      0.156806
   25 Atom       -0.302064      0.145255      0.156809
   26 Atom       -0.303098      0.147688      0.155410
 -----------------------------------------------------

 Test job not archived.
 1|1|UNPC-NP-ALMACH|FOpt|RB3LYP|6-311++G(d,p)|C7H16O2P1(1+)|HERA|06-Aug
 -2018|0||# RB3LYP/6-311++G** Opt Test prop=EFG||C7PH16O2||1,1|C,1.4043
 695321,1.0745729549,1.6906886421|P,0.6922797437,-0.575355986,1.4409205
 754|C,1.946978317,-1.8304231852,1.810150956|C,-0.719162942,-0.79235068
 29,2.5600617175|C,0.1746897395,-0.7948190552,-0.2942593597|C,-0.891429
 0485,0.1707819304,-0.8265059238|O,-1.082201811,-0.2396239025,-2.172988
 0851|C,-1.9847949059,0.3886145352,-3.0288695153|O,-2.0642458929,-0.036
 507345,-4.1385647514|C,-2.7770621829,1.5462963821,-2.4745081942|H,0.64
 95841103,1.8433227756,1.5170243914|H,2.2371775976,1.2283458522,1.00149
 72628|H,1.7700206535,1.1658928051,2.7155650152|H,1.527359918,-2.828145
 3152,1.667579567|H,2.8035674167,-1.7059660893,1.1448578369|H,2.2804991
 443,-1.7278055517,2.8446966628|H,-1.1752151,-1.7710863252,2.3979357|H,
 -1.4655630665,-0.0161136791,2.3834828987|H,-0.3806024779,-0.72551575,3
 .5960729397|H,1.0746356205,-0.7140452967,-0.9120446869|H,-0.1875255625
 ,-1.8227868694,-0.3951861649|H,-1.821048402,0.0849984365,-0.2536261188
 |H,-0.5425995572,1.2079102289,-0.7771372182|H,-3.391285335,1.236641087
 3,-1.624601806|H,-2.1200374407,2.355259067,-2.1437486987|H,-3.42737906
 81,1.9199359785,-3.2618686425||Version=EM64W-G09RevD.01|State=1-A|HF=-
 768.1296779|RMSD=4.034e-009|RMSF=2.058e-006|Dipole=1.5842145,0.1668596
 ,4.2308824|Quadrupole=4.4054131,-0.2028642,-4.202549,-5.1401272,5.9385
 67,-7.5156723|PG=C01 [X(C7H16O2P1)]||@


  THE LARGE PRINT GIVETH,
  AND THE SMALL PRINT TAKETH AWAY.

                     -- TOM WAITS
 Job cpu time:       0 days  0 hours 54 minutes  4.0 seconds.
 File lengths (MBytes):  RWF=     53 Int=      0 D2E=      0 Chk=      9 Scr=      1
 Normal termination of Gaussian 09 at Mon Aug 06 20:10:11 2018.
