 Entering Link 1 = C:\G09W\l1.exe PID=     14540.
  
 Copyright (c) 1988,1990,1992,1993,1995,1998,2003,2009,2013,
            Gaussian, Inc.  All Rights Reserved.
  
 This is part of the Gaussian(R) 09 program.  It is based on
 the Gaussian(R) 03 system (copyright 2003, Gaussian, Inc.),
 the Gaussian(R) 98 system (copyright 1998, Gaussian, Inc.),
 the Gaussian(R) 94 system (copyright 1995, Gaussian, Inc.),
 the Gaussian 92(TM) system (copyright 1992, Gaussian, Inc.),
 the Gaussian 90(TM) system (copyright 1990, Gaussian, Inc.),
 the Gaussian 88(TM) system (copyright 1988, Gaussian, Inc.),
 the Gaussian 86(TM) system (copyright 1986, Carnegie Mellon
 University), and the Gaussian 82(TM) system (copyright 1983,
 Carnegie Mellon University). Gaussian is a federally registered
 trademark of Gaussian, Inc.
  
 This software contains proprietary and confidential information,
 including trade secrets, belonging to Gaussian, Inc.
  
 This software is provided under written license and may be
 used, copied, transmitted, or stored only in accord with that
 written license.
  
 The following legend is applicable only to US Government
 contracts under FAR:
  
                    RESTRICTED RIGHTS LEGEND
  
 Use, reproduction and disclosure by the US Government is
 subject to restrictions as set forth in subparagraphs (a)
 and (c) of the Commercial Computer Software - Restricted
 Rights clause in FAR 52.227-19.
  
 Gaussian, Inc.
 340 Quinnipiac St., Bldg. 40, Wallingford CT 06492
  
  
 ---------------------------------------------------------------
 Warning -- This program may not be used in any manner that
 competes with the business of Gaussian, Inc. or will provide
 assistance to any competitor of Gaussian, Inc.  The licensee
 of this program is prohibited from giving any competitor of
 Gaussian, Inc. access to this program.  By using this program,
 the user acknowledges that Gaussian, Inc. is engaged in the
 business of creating and licensing software in the field of
 computational chemistry and represents and warrants to the
 licensee that it is not a competitor of Gaussian, Inc. and that
 it will not use this program in any manner prohibited above.
 ---------------------------------------------------------------
  

 Cite this work as:
 Gaussian 09, Revision D.01,
 M. J. Frisch, G. W. Trucks, H. B. Schlegel, G. E. Scuseria, 
 M. A. Robb, J. R. Cheeseman, G. Scalmani, V. Barone, B. Mennucci, 
 G. A. Petersson, H. Nakatsuji, M. Caricato, X. Li, H. P. Hratchian, 
 A. F. Izmaylov, J. Bloino, G. Zheng, J. L. Sonnenberg, M. Hada, 
 M. Ehara, K. Toyota, R. Fukuda, J. Hasegawa, M. Ishida, T. Nakajima, 
 Y. Honda, O. Kitao, H. Nakai, T. Vreven, J. A. Montgomery, Jr., 
 J. E. Peralta, F. Ogliaro, M. Bearpark, J. J. Heyd, E. Brothers, 
 K. N. Kudin, V. N. Staroverov, T. Keith, R. Kobayashi, J. Normand, 
 K. Raghavachari, A. Rendell, J. C. Burant, S. S. Iyengar, J. Tomasi, 
 M. Cossi, N. Rega, J. M. Millam, M. Klene, J. E. Knox, J. B. Cross, 
 V. Bakken, C. Adamo, J. Jaramillo, R. Gomperts, R. E. Stratmann, 
 O. Yazyev, A. J. Austin, R. Cammi, C. Pomelli, J. W. Ochterski, 
 R. L. Martin, K. Morokuma, V. G. Zakrzewski, G. A. Voth, 
 P. Salvador, J. J. Dannenberg, S. Dapprich, A. D. Daniels, 
 O. Farkas, J. B. Foresman, J. V. Ortiz, J. Cioslowski, 
 and D. J. Fox, Gaussian, Inc., Wallingford CT, 2013.
 
 ******************************************
 Gaussian 09:  EM64W-G09RevD.01 13-Apr-2013
                16-Aug-2018 
 ******************************************
 %Chk=Anth_379.chk
 %Mem=64GB
 %NProcShared=20
 Will use up to   20 processors via shared memory.
 -------------------------------------
 # RB3LYP/6-311++G** Opt Test prop=EFG
 -------------------------------------
 1/14=-1,18=20,19=15,26=3,38=1/1,3;
 2/9=110,12=2,17=6,18=5,40=1/2;
 3/5=4,6=6,7=1111,11=2,16=1,25=1,30=1,71=1,74=-5,116=1/1,2,3;
 4//1;
 5/5=2,38=5/2;
 6/7=2,8=2,9=2,10=2,14=1,28=1/1,2;
 7//1,2,3,16;
 1/14=-1,18=20,19=15,26=3/3(2);
 2/9=110/2;
 99//99;
 2/9=110/2;
 3/5=4,6=6,7=1111,11=2,16=1,25=1,30=1,71=1,74=-5,116=1/1,2,3;
 4/5=5,16=3,69=1/1;
 5/5=2,38=5/2;
 7//1,2,3,16;
 1/14=-1,18=20,19=15,26=3/3(-5);
 2/9=110/2;
 6/7=2,8=2,9=2,10=2,14=1,19=2,28=1/1,2;
 99/9=1/99;
 ---------
 C10PH22O2
 ---------
 Symbolic Z-matrix:
 Charge =  1 Multiplicity = 1
 C                    -1.77648  -1.42815  -1.0015 
 C                    -1.3823    0.04296  -1.0015 
 P                     0.47595   0.18921  -1.0015 
 C                     1.16518  -0.63781  -2.52318 
 C                     0.02283  -1.20842  -3.35323 
 C                     0.95656   1.99018  -1.00262 
 C                     2.47474   2.11122  -1.00262 
 C                     1.16403  -0.63809   0.52054 
 C                     0.02101  -1.20836   1.34991 
 O                     0.53855  -1.83061   2.49471 
 C                    -0.45946  -2.33476   3.2296 
 O                    -0.2168   -2.91345   4.26183 
 C                    -1.88813  -2.18044   2.76899 
 H                    -2.88605  -1.51547  -1.0015 
 H                    -1.36604  -1.92166  -1.91076 
 H                    -1.36563  -1.92214  -0.09269 
 H                    -1.79275   0.53647  -0.09225 
 H                    -1.79316   0.53696  -1.91031 
 H                     1.84968  -1.4612   -2.21945 
 H                     1.72676   0.10841  -3.12863 
 H                     0.43437  -1.70223  -4.26183 
 H                    -0.66167  -0.38503  -3.65697 
 H                    -0.53875  -1.95463  -2.74779 
 H                     0.54557   2.48385  -0.09369 
 H                     0.54525   2.48319  -1.91176 
 H                     2.76172   3.18659  -1.00329 
 H                     2.88574   1.61755  -1.91155 
 H                     2.88605   1.61821  -0.09348 
 H                     1.84843  -1.4617    0.21716 
 H                     1.72551   0.10791   1.12634 
 H                    -0.66339  -0.38475   1.65328 
 H                    -0.54047  -1.95436   0.74411 
 H                    -1.90974  -1.62404   1.80529 
 H                    -2.34203  -3.18659   2.62611 
 H                    -2.46608  -1.61716   3.53544 
 

 GradGradGradGradGradGradGradGradGradGradGradGradGradGradGradGradGradGrad
 Berny optimization.
 Initialization pass.
                           ----------------------------
                           !    Initial Parameters    !
                           ! (Angstroms and Degrees)  !
 --------------------------                            --------------------------
 ! Name  Definition              Value          Derivative Info.                !
 --------------------------------------------------------------------------------
 ! R1    R(1,2)                  1.523          estimate D2E/DX2                !
 ! R2    R(1,14)                 1.113          estimate D2E/DX2                !
 ! R3    R(1,15)                 1.113          estimate D2E/DX2                !
 ! R4    R(1,16)                 1.113          estimate D2E/DX2                !
 ! R5    R(2,3)                  1.864          estimate D2E/DX2                !
 ! R6    R(2,17)                 1.113          estimate D2E/DX2                !
 ! R7    R(2,18)                 1.113          estimate D2E/DX2                !
 ! R8    R(3,4)                  1.864          estimate D2E/DX2                !
 ! R9    R(3,6)                  1.864          estimate D2E/DX2                !
 ! R10   R(3,8)                  1.864          estimate D2E/DX2                !
 ! R11   R(4,5)                  1.523          estimate D2E/DX2                !
 ! R12   R(4,19)                 1.113          estimate D2E/DX2                !
 ! R13   R(4,20)                 1.113          estimate D2E/DX2                !
 ! R14   R(5,21)                 1.113          estimate D2E/DX2                !
 ! R15   R(5,22)                 1.113          estimate D2E/DX2                !
 ! R16   R(5,23)                 1.113          estimate D2E/DX2                !
 ! R17   R(6,7)                  1.523          estimate D2E/DX2                !
 ! R18   R(6,24)                 1.113          estimate D2E/DX2                !
 ! R19   R(6,25)                 1.113          estimate D2E/DX2                !
 ! R20   R(7,26)                 1.113          estimate D2E/DX2                !
 ! R21   R(7,27)                 1.113          estimate D2E/DX2                !
 ! R22   R(7,28)                 1.113          estimate D2E/DX2                !
 ! R23   R(8,9)                  1.523          estimate D2E/DX2                !
 ! R24   R(8,29)                 1.113          estimate D2E/DX2                !
 ! R25   R(8,30)                 1.113          estimate D2E/DX2                !
 ! R26   R(9,10)                 1.402          estimate D2E/DX2                !
 ! R27   R(9,31)                 1.113          estimate D2E/DX2                !
 ! R28   R(9,32)                 1.113          estimate D2E/DX2                !
 ! R29   R(10,11)                1.338          estimate D2E/DX2                !
 ! R30   R(11,12)                1.208          estimate D2E/DX2                !
 ! R31   R(11,13)                1.509          estimate D2E/DX2                !
 ! R32   R(13,33)                1.113          estimate D2E/DX2                !
 ! R33   R(13,34)                1.113          estimate D2E/DX2                !
 ! R34   R(13,35)                1.113          estimate D2E/DX2                !
 ! A1    A(2,1,14)             109.5            estimate D2E/DX2                !
 ! A2    A(2,1,15)             109.4418         estimate D2E/DX2                !
 ! A3    A(2,1,16)             109.4618         estimate D2E/DX2                !
 ! A4    A(14,1,15)            109.4418         estimate D2E/DX2                !
 ! A5    A(14,1,16)            109.4618         estimate D2E/DX2                !
 ! A6    A(15,1,16)            109.52           estimate D2E/DX2                !
 ! A7    A(1,2,3)              109.5            estimate D2E/DX2                !
 ! A8    A(1,2,17)             109.4418         estimate D2E/DX2                !
 ! A9    A(1,2,18)             109.4619         estimate D2E/DX2                !
 ! A10   A(3,2,17)             109.4419         estimate D2E/DX2                !
 ! A11   A(3,2,18)             109.4618         estimate D2E/DX2                !
 ! A12   A(17,2,18)            109.5199         estimate D2E/DX2                !
 ! A13   A(2,3,4)              109.5            estimate D2E/DX2                !
 ! A14   A(2,3,6)              109.4418         estimate D2E/DX2                !
 ! A15   A(2,3,8)              109.4619         estimate D2E/DX2                !
 ! A16   A(4,3,6)              109.4418         estimate D2E/DX2                !
 ! A17   A(4,3,8)              109.4618         estimate D2E/DX2                !
 ! A18   A(6,3,8)              109.52           estimate D2E/DX2                !
 ! A19   A(3,4,5)              109.4999         estimate D2E/DX2                !
 ! A20   A(3,4,19)             109.4419         estimate D2E/DX2                !
 ! A21   A(3,4,20)             109.4618         estimate D2E/DX2                !
 ! A22   A(5,4,19)             109.4418         estimate D2E/DX2                !
 ! A23   A(5,4,20)             109.4618         estimate D2E/DX2                !
 ! A24   A(19,4,20)            109.5201         estimate D2E/DX2                !
 ! A25   A(4,5,21)             109.4999         estimate D2E/DX2                !
 ! A26   A(4,5,22)             109.4419         estimate D2E/DX2                !
 ! A27   A(4,5,23)             109.4618         estimate D2E/DX2                !
 ! A28   A(21,5,22)            109.4419         estimate D2E/DX2                !
 ! A29   A(21,5,23)            109.4618         estimate D2E/DX2                !
 ! A30   A(22,5,23)            109.5201         estimate D2E/DX2                !
 ! A31   A(3,6,7)              109.5            estimate D2E/DX2                !
 ! A32   A(3,6,24)             109.4418         estimate D2E/DX2                !
 ! A33   A(3,6,25)             109.4618         estimate D2E/DX2                !
 ! A34   A(7,6,24)             109.4418         estimate D2E/DX2                !
 ! A35   A(7,6,25)             109.4618         estimate D2E/DX2                !
 ! A36   A(24,6,25)            109.5201         estimate D2E/DX2                !
 ! A37   A(6,7,26)             109.5            estimate D2E/DX2                !
 ! A38   A(6,7,27)             109.4419         estimate D2E/DX2                !
 ! A39   A(6,7,28)             109.4619         estimate D2E/DX2                !
 ! A40   A(26,7,27)            109.4419         estimate D2E/DX2                !
 ! A41   A(26,7,28)            109.4618         estimate D2E/DX2                !
 ! A42   A(27,7,28)            109.5199         estimate D2E/DX2                !
 ! A43   A(3,8,9)              109.5            estimate D2E/DX2                !
 ! A44   A(3,8,29)             109.4418         estimate D2E/DX2                !
 ! A45   A(3,8,30)             109.4619         estimate D2E/DX2                !
 ! A46   A(9,8,29)             109.4418         estimate D2E/DX2                !
 ! A47   A(9,8,30)             109.4618         estimate D2E/DX2                !
 ! A48   A(29,8,30)            109.52           estimate D2E/DX2                !
 ! A49   A(8,9,10)             109.5            estimate D2E/DX2                !
 ! A50   A(8,9,31)             109.4419         estimate D2E/DX2                !
 ! A51   A(8,9,32)             109.4618         estimate D2E/DX2                !
 ! A52   A(10,9,31)            109.4418         estimate D2E/DX2                !
 ! A53   A(10,9,32)            109.4618         estimate D2E/DX2                !
 ! A54   A(31,9,32)            109.52           estimate D2E/DX2                !
 ! A55   A(9,10,11)            109.9            estimate D2E/DX2                !
 ! A56   A(10,11,12)           120.0            estimate D2E/DX2                !
 ! A57   A(10,11,13)           120.0            estimate D2E/DX2                !
 ! A58   A(12,11,13)           120.0            estimate D2E/DX2                !
 ! A59   A(11,13,33)           109.5            estimate D2E/DX2                !
 ! A60   A(11,13,34)           109.4419         estimate D2E/DX2                !
 ! A61   A(11,13,35)           109.4619         estimate D2E/DX2                !
 ! A62   A(33,13,34)           109.4418         estimate D2E/DX2                !
 ! A63   A(33,13,35)           109.4618         estimate D2E/DX2                !
 ! A64   A(34,13,35)           109.5199         estimate D2E/DX2                !
 ! D1    D(14,1,2,3)           180.0            estimate D2E/DX2                !
 ! D2    D(14,1,2,17)           60.0363         estimate D2E/DX2                !
 ! D3    D(14,1,2,18)          -59.9996         estimate D2E/DX2                !
 ! D4    D(15,1,2,3)           -60.0364         estimate D2E/DX2                !
 ! D5    D(15,1,2,17)          180.0            estimate D2E/DX2                !
 ! D6    D(15,1,2,18)           59.964          estimate D2E/DX2                !
 ! D7    D(16,1,2,3)            59.9996         estimate D2E/DX2                !
 ! D8    D(16,1,2,17)          -59.964          estimate D2E/DX2                !
 ! D9    D(16,1,2,18)         -179.9999         estimate D2E/DX2                !
 ! D10   D(1,2,3,4)             60.0            estimate D2E/DX2                !
 ! D11   D(1,2,3,6)            179.9636         estimate D2E/DX2                !
 ! D12   D(1,2,3,8)            -60.0004         estimate D2E/DX2                !
 ! D13   D(17,2,3,4)           179.9636         estimate D2E/DX2                !
 ! D14   D(17,2,3,6)           -60.0727         estimate D2E/DX2                !
 ! D15   D(17,2,3,8)            59.9632         estimate D2E/DX2                !
 ! D16   D(18,2,3,4)           -60.0004         estimate D2E/DX2                !
 ! D17   D(18,2,3,6)            59.9632         estimate D2E/DX2                !
 ! D18   D(18,2,3,8)           179.9992         estimate D2E/DX2                !
 ! D19   D(2,3,4,5)              0.0            estimate D2E/DX2                !
 ! D20   D(2,3,4,19)          -119.9636         estimate D2E/DX2                !
 ! D21   D(2,3,4,20)           120.0003         estimate D2E/DX2                !
 ! D22   D(6,3,4,5)           -119.9636         estimate D2E/DX2                !
 ! D23   D(6,3,4,19)           120.0728         estimate D2E/DX2                !
 ! D24   D(6,3,4,20)             0.0367         estimate D2E/DX2                !
 ! D25   D(8,3,4,5)            120.0005         estimate D2E/DX2                !
 ! D26   D(8,3,4,19)             0.0368         estimate D2E/DX2                !
 ! D27   D(8,3,4,20)          -119.9993         estimate D2E/DX2                !
 ! D28   D(2,3,6,7)            180.0            estimate D2E/DX2                !
 ! D29   D(2,3,6,24)            60.0364         estimate D2E/DX2                !
 ! D30   D(2,3,6,25)           -59.9996         estimate D2E/DX2                !
 ! D31   D(4,3,6,7)            -60.0007         estimate D2E/DX2                !
 ! D32   D(4,3,6,24)          -179.9643         estimate D2E/DX2                !
 ! D33   D(4,3,6,25)            59.9997         estimate D2E/DX2                !
 ! D34   D(8,3,6,7)             59.9996         estimate D2E/DX2                !
 ! D35   D(8,3,6,24)           -59.964          estimate D2E/DX2                !
 ! D36   D(8,3,6,25)           180.0            estimate D2E/DX2                !
 ! D37   D(2,3,8,9)              0.0            estimate D2E/DX2                !
 ! D38   D(2,3,8,29)           119.9636         estimate D2E/DX2                !
 ! D39   D(2,3,8,30)          -120.0004         estimate D2E/DX2                !
 ! D40   D(4,3,8,9)           -120.0238         estimate D2E/DX2                !
 ! D41   D(4,3,8,29)            -0.0602         estimate D2E/DX2                !
 ! D42   D(4,3,8,30)           119.9758         estimate D2E/DX2                !
 ! D43   D(6,3,8,9)            119.9881         estimate D2E/DX2                !
 ! D44   D(6,3,8,29)          -120.0482         estimate D2E/DX2                !
 ! D45   D(6,3,8,30)            -0.0123         estimate D2E/DX2                !
 ! D46   D(3,4,5,21)           180.0            estimate D2E/DX2                !
 ! D47   D(3,4,5,22)            60.0364         estimate D2E/DX2                !
 ! D48   D(3,4,5,23)           -59.9997         estimate D2E/DX2                !
 ! D49   D(19,4,5,21)          -60.0363         estimate D2E/DX2                !
 ! D50   D(19,4,5,22)         -180.0            estimate D2E/DX2                !
 ! D51   D(19,4,5,23)           59.964          estimate D2E/DX2                !
 ! D52   D(20,4,5,21)           59.9997         estimate D2E/DX2                !
 ! D53   D(20,4,5,22)          -59.9639         estimate D2E/DX2                !
 ! D54   D(20,4,5,23)         -180.0            estimate D2E/DX2                !
 ! D55   D(3,6,7,26)          -180.0            estimate D2E/DX2                !
 ! D56   D(3,6,7,27)            60.0363         estimate D2E/DX2                !
 ! D57   D(3,6,7,28)           -59.9996         estimate D2E/DX2                !
 ! D58   D(24,6,7,26)          -60.0364         estimate D2E/DX2                !
 ! D59   D(24,6,7,27)          179.9999         estimate D2E/DX2                !
 ! D60   D(24,6,7,28)           59.964          estimate D2E/DX2                !
 ! D61   D(25,6,7,26)           59.9996         estimate D2E/DX2                !
 ! D62   D(25,6,7,27)          -59.964          estimate D2E/DX2                !
 ! D63   D(25,6,7,28)         -180.0            estimate D2E/DX2                !
 ! D64   D(3,8,9,10)           180.0            estimate D2E/DX2                !
 ! D65   D(3,8,9,31)           -60.0364         estimate D2E/DX2                !
 ! D66   D(3,8,9,32)            59.9997         estimate D2E/DX2                !
 ! D67   D(29,8,9,10)           60.0363         estimate D2E/DX2                !
 ! D68   D(29,8,9,31)          180.0            estimate D2E/DX2                !
 ! D69   D(29,8,9,32)          -59.964          estimate D2E/DX2                !
 ! D70   D(30,8,9,10)          -59.9996         estimate D2E/DX2                !
 ! D71   D(30,8,9,31)           59.964          estimate D2E/DX2                !
 ! D72   D(30,8,9,32)         -179.9999         estimate D2E/DX2                !
 ! D73   D(8,9,10,11)          180.0            estimate D2E/DX2                !
 ! D74   D(31,9,10,11)          60.0363         estimate D2E/DX2                !
 ! D75   D(32,9,10,11)         -59.9997         estimate D2E/DX2                !
 ! D76   D(9,10,11,12)        -180.0            estimate D2E/DX2                !
 ! D77   D(9,10,11,13)           0.0            estimate D2E/DX2                !
 ! D78   D(10,11,13,33)          0.0            estimate D2E/DX2                !
 ! D79   D(10,11,13,34)        119.9636         estimate D2E/DX2                !
 ! D80   D(10,11,13,35)       -120.0004         estimate D2E/DX2                !
 ! D81   D(12,11,13,33)       -180.0            estimate D2E/DX2                !
 ! D82   D(12,11,13,34)        -60.0363         estimate D2E/DX2                !
 ! D83   D(12,11,13,35)         59.9996         estimate D2E/DX2                !
 --------------------------------------------------------------------------------
 Trust Radius=3.00D-01 FncErr=1.00D-07 GrdErr=1.00D-06
 Number of steps in this run=    191 maximum allowed number of steps=    210.
 GradGradGradGradGradGradGradGradGradGradGradGradGradGradGradGradGradGrad

                          Input orientation:                          
 ---------------------------------------------------------------------
 Center     Atomic      Atomic             Coordinates (Angstroms)
 Number     Number       Type             X           Y           Z
 ---------------------------------------------------------------------
      1          6           0       -1.776484   -1.428146   -1.001504
      2          6           0       -1.382303    0.042959   -1.001504
      3         15           0        0.475950    0.189208   -1.001504
      4          6           0        1.165179   -0.637807   -2.523183
      5          6           0        0.022833   -1.208421   -3.353230
      6          6           0        0.956560    1.990183   -1.002620
      7          6           0        2.474743    2.111218   -1.002621
      8          6           0        1.164027   -0.638094    0.520539
      9          6           0        0.021014   -1.208360    1.349906
     10          8           0        0.538548   -1.830613    2.494705
     11          6           0       -0.459456   -2.334755    3.229600
     12          8           0       -0.216800   -2.913449    4.261829
     13          6           0       -1.888127   -2.180441    2.768986
     14          1           0       -2.886053   -1.515472   -1.001504
     15          1           0       -1.366037   -1.921655   -1.910762
     16          1           0       -1.365631   -1.922143   -0.092694
     17          1           0       -1.792751    0.536468   -0.092246
     18          1           0       -1.793157    0.536957   -1.910314
     19          1           0        1.849678   -1.461197   -2.219446
     20          1           0        1.726760    0.108405   -3.128629
     21          1           0        0.434374   -1.702234   -4.261829
     22          1           0       -0.661666   -0.385031   -3.656968
     23          1           0       -0.538748   -1.954632   -2.747785
     24          1           0        0.545567    2.483850   -0.093694
     25          1           0        0.545251    2.483187   -1.911762
     26          1           0        2.761716    3.186586   -1.003287
     27          1           0        2.885737    1.617550   -1.911546
     28          1           0        2.886053    1.618213   -0.093478
     29          1           0        1.848428   -1.461701    0.217163
     30          1           0        1.725509    0.107906    1.126336
     31          1           0       -0.663386   -0.384754    1.653282
     32          1           0       -0.540467   -1.954361    0.744109
     33          1           0       -1.909741   -1.624038    1.805286
     34          1           0       -2.342032   -3.186586    2.626112
     35          1           0       -2.466076   -1.617159    3.535444
 ---------------------------------------------------------------------
                    Distance matrix (angstroms):
                    1          2          3          4          5
     1  C    0.000000
     2  C    1.523000   0.000000
     3  P    2.772957   1.863999   0.000000
     4  C    3.404926   3.044440   1.864000   0.000000
     5  C    2.969248   3.011806   2.772958   1.523001   0.000000
     6  C    4.376586   3.043347   1.864001   3.043348   4.077779
     7  C    5.531729   4.376585   2.772958   3.403558   4.749445
     8  C    3.404027   3.043722   1.863999   3.043722   4.078441
     9  C    2.967901   3.010685   2.772957   4.078659   4.703136
    10  O    4.212461   4.407201   4.038202   5.195638   5.903510
    11  C    4.523134   4.940386   5.014740   6.213983   6.695885
    12  O    5.686951   6.148286   6.148907   7.288676   7.807283
    13  C    3.846428   4.406355   5.041894   6.301543   6.486765
    14  H    1.113000   2.165634   3.769482   4.415686   3.753200
    15  H    1.113000   2.164884   2.945405   2.903512   2.125647
    16  H    1.113000   2.165142   2.945362   3.736549   3.615014
    17  H    2.164884   1.113000   2.468672   4.004713   4.120073
    18  H    2.165143   1.113001   2.468949   3.241517   2.902787
    19  H    3.825379   3.767170   2.468673   1.112999   2.164884
    20  H    4.377027   3.767654   2.468950   1.113001   2.165143
    21  H    3.948764   4.120162   3.769483   2.165634   1.113000
    22  H    3.063070   2.784597   2.945405   2.164885   1.112999
    23  H    2.204240   2.784143   2.945362   2.165142   1.112999
    24  H    4.638939   3.240178   2.468673   4.003883   4.952847
    25  H    4.638701   3.240177   2.468950   3.240177   3.997339
    26  H    6.472327   5.201470   3.769483   4.414181   5.686809
    27  H    5.642760   4.639362   2.945405   2.901905   4.273264
    28  H    5.643055   4.639483   2.945363   3.735572   5.178211
    29  H    3.824430   3.766533   2.468673   2.941960   4.018041
    30  H    4.376199   3.767017   2.468949   3.766835   4.969742
    31  H    3.061951   2.783463   2.945404   4.566240   5.120008
    32  H    2.202681   2.783009   2.945362   3.913788   4.202609
    33  H    2.816771   3.306832   4.105783   5.400317   5.524298
    34  H    4.070817   4.950822   5.700579   6.731422   6.727426
    35  H    4.592947   4.951207   5.701085   7.131066   7.335909
                    6          7          8          9         10
     6  C    0.000000
     7  C    1.523000   0.000000
     8  C    3.044815   3.405394   0.000000
     9  C    4.079253   4.751291   1.523001   0.000000
    10  O    5.196585   5.614105   2.389698   1.402000   0.000000
    11  C    6.214650   6.803521   3.585159   2.243405   1.337999
    12  O    7.289500   7.759260   4.591424   3.382777   2.205858
    13  C    6.301695   7.188741   4.092675   2.569737   2.467055
    14  H    5.201470   6.472327   4.414698   3.751598   4.904150
    15  H    4.639144   5.642728   3.736305   3.614506   4.800403
    16  H    4.639702   5.643088   2.902414   2.124468   3.213862
    17  H    3.240491   4.638979   3.240006   2.900685   4.210741
    18  H    3.239864   4.638661   4.004339   4.119027   5.517828
    19  H    3.767008   3.825378   2.941961   4.018484   4.907010
    20  H    2.941804   3.015070   3.767009   4.969981   6.065767
    21  H    4.952683   5.415529   4.953366   5.648570   6.758556
    22  H    3.912270   4.807690   4.566044   5.119835   6.432208
    23  H    4.565426   5.353304   3.913395   4.202538   5.353471
    24  H    1.113000   2.164884   3.241344   3.998944   5.031347
    25  H    1.112999   2.165141   4.005168   4.953869   6.166512
    26  H    2.165634   1.113001   4.416201   5.688982   6.507742
    27  H    2.164885   1.113000   3.737279   5.179718   6.067468
    28  H    2.165143   1.113001   2.904016   4.275666   4.909569
    29  H    3.768130   3.826995   1.113001   2.164886   2.653126
    30  H    2.943926   3.017792   1.113000   2.165143   2.653143
    31  H    3.913868   4.809527   2.164885   1.112999   2.059890
    32  H    4.566353   5.354577   2.165143   1.113000   2.060139
    33  H    5.400242   6.407822   3.474293   2.026814   2.551880
    34  H    7.130732   8.027188   4.818786   3.335576   3.186483
    35  H    6.732115   7.675058   4.819322   3.336062   3.186921
                   11         12         13         14         15
    11  C    0.000000
    12  O    1.208001   0.000000
    13  C    1.508999   2.357799   0.000000
    14  H    4.945891   6.064810   3.956594   0.000000
    15  H    5.236016   6.356515   4.715887   1.817191   0.000000
    16  H    3.468291   4.611331   2.920434   1.817416   1.818068
    17  H    4.588710   5.774385   3.946814   2.496501   3.087305
    18  H    6.036904   7.244691   5.411942   2.496562   2.495437
    19  H    5.982249   6.956026   6.274787   4.890141   3.263147
    20  H    7.153716   8.217536   7.286157   5.332887   3.894835
    21  H    7.571032   8.633876   7.419909   4.657235   2.969367
    22  H    7.160107   8.324551   6.783848   3.643801   2.430347
    23  H    5.989984   7.082208   5.683887   2.958412   1.177328
    24  H    5.939134   6.977293   5.989442   5.347402   5.134631
    25  H    7.117275   8.235146   7.041318   5.347120   4.801631
    26  H    7.666713   8.590892   8.040899   7.348922   6.629931
    27  H    7.296740   8.262339   7.689076   6.630050   5.532048
    28  H    6.153148   7.009448   6.739159   6.630362   5.823526
    29  H    3.894012   4.767815   4.581510   4.889105   3.882320
    30  H    3.894147   4.767858   4.581833   5.331938   4.785472
    31  H    2.515725   3.660363   2.443211   3.642343   3.944387
    32  H    2.515736   3.660460   2.442832   2.956613   2.780463
    33  H    2.153396   3.250113   1.113000   2.973725   3.767387
    34  H    2.152651   2.695697   1.113001   4.030903   4.809973
    35  H    2.152907   2.695783   1.113000   4.557479   5.564527
                   16         17         18         19         20
    16  H    0.000000
    17  H    2.495436   0.000000
    18  H    3.087668   1.818068   0.000000
    19  H    3.882494   4.667219   4.166345   0.000000
    20  H    4.785698   4.667956   3.749368   1.818068   0.000000
    21  H    4.546434   5.230420   3.937702   2.496500   2.496561
    22  H    3.944912   3.851721   2.276210   3.087305   2.495436
    23  H    2.781061   3.850973   2.912544   2.495436   3.087667
    24  H    4.802651   3.043030   3.544027   4.667218   4.030978
    25  H    5.134921   3.544941   3.042362   4.165857   2.918273
    26  H    6.630481   5.347550   5.346971   4.890066   3.881161
    27  H    5.823382   5.134865   4.802055   3.262959   2.258769
    28  H    5.532715   4.802227   5.134687   3.882857   3.582684
    29  H    3.261624   4.164925   4.667112   2.436609   3.697886
    30  H    3.893877   3.747901   4.667584   3.697534   4.254965
    31  H    2.430050   2.273980   3.850344   4.740490   5.368675
    32  H    1.175658   2.910659   3.849917   3.839097   4.938970
    33  H    1.996810   2.877864   4.299904   5.509829   6.369381
    34  H    3.153424   4.642447   5.894506   6.635272   7.780044
    35  H    3.803601   4.272190   5.894855   7.195055   8.060230
                   21         22         23         24         25
    21  H    0.000000
    22  H    1.817191   0.000000
    23  H    1.817416   1.818068   0.000000
    24  H    5.908385   4.731259   5.283944   0.000000
    25  H    4.801339   3.567782   4.644160   1.818068   0.000000
    26  H    6.319429   5.614091   6.353618   2.496500   2.496560
    27  H    4.749103   4.431805   5.018653   3.087306   2.495436
    28  H    5.866110   5.412740   5.616033   2.495436   3.087668
    29  H    4.703060   4.740114   3.838295   4.166708   4.668269
    30  H    5.828890   5.368574   4.938597   2.919905   4.032990
    31  H    6.158682   5.310250   4.674339   3.569647   4.732381
    32  H    5.106202   4.674074   3.491894   4.645331   5.284342
    33  H    6.504681   5.738384   4.766484   5.148729   6.059103
    34  H    7.573339   7.081627   5.800717   6.920218   7.815051
    35  H    8.319694   7.516969   6.580839   6.249713   7.453387
                   26         27         28         29         30
    26  H    0.000000
    27  H    1.817193   0.000000
    28  H    1.817417   1.818068   0.000000
    29  H    4.891847   3.884482   3.264818   0.000000
    30  H    3.884236   3.585231   2.261821   1.818068   0.000000
    31  H    5.616329   5.414194   4.434136   3.087307   2.495437
    32  H    6.355088   5.616932   5.020545   2.495437   3.087667
    33  H    7.269986   6.878906   6.092383   4.083176   4.083582
    34  H    8.935217   8.426128   7.603627   5.132077   5.444988
    35  H    8.426497   8.293066   7.230629   5.445191   5.133131
                   31         32         33         34         35
    31  H    0.000000
    32  H    1.818068   0.000000
    33  H    1.764180   1.763554   0.000000
    34  H    3.408007   2.882005   1.817192   0.000000
    35  H    2.882889   3.407818   1.817416   1.818068   0.000000
 Stoichiometry    C10H22O2P(1+)
 Framework group  C1[X(C10H22O2P)]
 Deg. of freedom    99
 Full point group                 C1      NOp   1
 Largest Abelian subgroup         C1      NOp   1
 Largest concise Abelian subgroup C1      NOp   1
                         Standard orientation:                         
 ---------------------------------------------------------------------
 Center     Atomic      Atomic             Coordinates (Angstroms)
 Number     Number       Type             X           Y           Z
 ---------------------------------------------------------------------
      1          6           0        0.098815    2.248660    0.477606
      2          6           0        0.900838    1.225762    1.271311
      3         15           0        1.447157   -0.150677    0.139302
      4          6           0        2.509564    0.548913   -1.223181
      5          6           0        2.642711    2.055162   -1.041469
      6          6           0        2.429456   -1.401009    1.112059
      7          6           0        2.876535   -2.526339    0.188327
      8          6           0       -0.050490   -0.975970   -0.602615
      9          6           0       -1.312833   -0.301305   -0.082185
     10          8           0       -2.439283   -0.922045   -0.640216
     11          6           0       -3.553481   -0.335200   -0.188089
     12          8           0       -4.635017   -0.728990   -0.554799
     13          6           0       -3.459054    0.818557    0.779902
     14          1           0       -0.227394    3.070536    1.153531
     15          1           0        0.733599    2.667330   -0.335125
     16          1           0       -0.795435    1.755884    0.034594
     17          1           0        0.266053    0.807093    2.084042
     18          1           0        1.795088    1.718538    1.714323
     19          1           0        2.037399    0.334887   -2.208077
     20          1           0        3.518295    0.080144   -1.184640
     21          1           0        3.277077    2.472890   -1.855012
     22          1           0        3.114876    2.269189   -0.056573
     23          1           0        1.633980    2.523932   -1.080010
     24          1           0        1.794886   -1.819211    1.925199
     25          1           0        3.323395   -0.907244    1.554593
     26          1           0        3.463069   -3.272916    0.769164
     27          1           0        3.511105   -2.108139   -0.624814
     28          1           0        1.982595   -3.020105   -0.254208
     29          1           0       -0.012231   -0.885468   -1.711270
     30          1           0       -0.060480   -2.051766   -0.317429
     31          1           0       -1.351093   -0.391807    1.026468
     32          1           0       -1.302843    0.774491   -0.367373
     33          1           0       -2.389072    1.034407    0.997425
     34          1           0       -3.934714    1.718938    0.330644
     35          1           0       -3.983471    0.553441    1.725137
 ---------------------------------------------------------------------
 Rotational constants (GHZ):      1.0419931      0.3573355      0.3074166
 Standard basis: 6-311++G(d,p) (5D, 7F)
 There are   461 symmetry adapted cartesian basis functions of A   symmetry.
 There are   448 symmetry adapted basis functions of A   symmetry.
   448 basis functions,   680 primitive gaussians,   461 cartesian basis functions
    56 alpha electrons       56 beta electrons
       nuclear repulsion energy      1007.6355439948 Hartrees.
 NAtoms=   35 NActive=   35 NUniq=   35 SFac= 1.00D+00 NAtFMM=   60 NAOKFM=F Big=F
 Integral buffers will be    131072 words long.
 Raffenetti 2 integral format.
 Two-electron integral symmetry is turned on.
 One-electron integrals computed using PRISM.
 NBasis=   448 RedAO= T EigKep=  2.88D-06  NBF=   448
 NBsUse=   448 1.00D-06 EigRej= -1.00D+00 NBFU=   448
 ExpMin= 3.48D-02 ExpMax= 7.75D+04 ExpMxC= 2.65D+03 IAcc=3 IRadAn=         5 AccDes= 0.00D+00
 Harris functional with IExCor=  402 and IRadAn=       5 diagonalized for initial guess.
 HarFok:  IExCor=  402 AccDes= 0.00D+00 IRadAn=         5 IDoV= 1 UseB2=F ITyADJ=14
 ICtDFT=  3500011 ScaDFX=  1.000000  1.000000  1.000000  1.000000
 FoFCou: FMM=F IPFlag=           0 FMFlag=      100000 FMFlg1=           0
         NFxFlg=           0 DoJE=T BraDBF=F KetDBF=T FulRan=T
         wScrn=  0.000000 ICntrl=     500 IOpCl=  0 I1Cent=   200000004 NGrid=           0
         NMat0=    1 NMatS0=      1 NMatT0=    0 NMatD0=    1 NMtDS0=    0 NMtDT0=    0
 Petite list used in FoFCou.
 Keep R1 ints in memory in canonical form, NReq=5107790321.
 Requested convergence on RMS density matrix=1.00D-08 within 128 cycles.
 Requested convergence on MAX density matrix=1.00D-06.
 Requested convergence on             energy=1.00D-06.
 No special actions if energy rises.
 SCF Done:  E(RB3LYP) =  -886.000246085     A.U. after   14 cycles
            NFock= 14  Conv=0.45D-08     -V/T= 2.0034

 **********************************************************************

            Population analysis using the SCF density.

 **********************************************************************

 Orbital symmetries:
       Occupied  (A) (A) (A) (A) (A) (A) (A) (A) (A) (A) (A) (A)
                 (A) (A) (A) (A) (A) (A) (A) (A) (A) (A) (A) (A)
                 (A) (A) (A) (A) (A) (A) (A) (A) (A) (A) (A) (A)
                 (A) (A) (A) (A) (A) (A) (A) (A) (A) (A) (A) (A)
                 (A) (A) (A) (A) (A) (A) (A) (A)
       Virtual   (A) (A) (A) (A) (A) (A) (A) (A) (A) (A) (A) (A)
                 (A) (A) (A) (A) (A) (A) (A) (A) (A) (A) (A) (A)
                 (A) (A) (A) (A) (A) (A) (A) (A) (A) (A) (A) (A)
                 (A) (A) (A) (A) (A) (A) (A) (A) (A) (A) (A) (A)
                 (A) (A) (A) (A) (A) (A) (A) (A) (A) (A) (A) (A)
                 (A) (A) (A) (A) (A) (A) (A) (A) (A) (A) (A) (A)
                 (A) (A) (A) (A) (A) (A) (A) (A) (A) (A) (A) (A)
                 (A) (A) (A) (A) (A) (A) (A) (A) (A) (A) (A) (A)
                 (A) (A) (A) (A) (A) (A) (A) (A) (A) (A) (A) (A)
                 (A) (A) (A) (A) (A) (A) (A) (A) (A) (A) (A) (A)
                 (A) (A) (A) (A) (A) (A) (A) (A) (A) (A) (A) (A)
                 (A) (A) (A) (A) (A) (A) (A) (A) (A) (A) (A) (A)
                 (A) (A) (A) (A) (A) (A) (A) (A) (A) (A) (A) (A)
                 (A) (A) (A) (A) (A) (A) (A) (A) (A) (A) (A) (A)
                 (A) (A) (A) (A) (A) (A) (A) (A) (A) (A) (A) (A)
                 (A) (A) (A) (A) (A) (A) (A) (A) (A) (A) (A) (A)
                 (A) (A) (A) (A) (A) (A) (A) (A) (A) (A) (A) (A)
                 (A) (A) (A) (A) (A) (A) (A) (A) (A) (A) (A) (A)
                 (A) (A) (A) (A) (A) (A) (A) (A) (A) (A) (A) (A)
                 (A) (A) (A) (A) (A) (A) (A) (A) (A) (A) (A) (A)
                 (A) (A) (A) (A) (A) (A) (A) (A) (A) (A) (A) (A)
                 (A) (A) (A) (A) (A) (A) (A) (A) (A) (A) (A) (A)
                 (A) (A) (A) (A) (A) (A) (A) (A) (A) (A) (A) (A)
                 (A) (A) (A) (A) (A) (A) (A) (A) (A) (A) (A) (A)
                 (A) (A) (A) (A) (A) (A) (A) (A) (A) (A) (A) (A)
                 (A) (A) (A) (A) (A) (A) (A) (A) (A) (A) (A) (A)
                 (A) (A) (A) (A) (A) (A) (A) (A) (A) (A) (A) (A)
                 (A) (A) (A) (A) (A) (A) (A) (A) (A) (A) (A) (A)
                 (A) (A) (A) (A) (A) (A) (A) (A) (A) (A) (A) (A)
                 (A) (A) (A) (A) (A) (A) (A) (A) (A) (A) (A) (A)
                 (A) (A) (A) (A) (A) (A) (A) (A) (A) (A) (A) (A)
                 (A) (A) (A) (A) (A) (A) (A) (A) (A) (A) (A) (A)
                 (A) (A) (A) (A) (A) (A) (A) (A)
 The electronic state is 1-A.
 Alpha  occ. eigenvalues --  -77.29245 -19.30232 -19.20996 -10.41277 -10.39079
 Alpha  occ. eigenvalues --  -10.36963 -10.36776 -10.36678 -10.36409 -10.32836
 Alpha  occ. eigenvalues --  -10.32835 -10.32367 -10.30142  -6.78655  -4.94706
 Alpha  occ. eigenvalues --   -4.94695  -4.94660  -1.24828  -1.13889  -1.00356
 Alpha  occ. eigenvalues --   -0.94270  -0.94185  -0.92723  -0.87267  -0.85256
 Alpha  occ. eigenvalues --   -0.79960  -0.78888  -0.78025  -0.73611  -0.71402
 Alpha  occ. eigenvalues --   -0.67343  -0.65386  -0.64540  -0.63487  -0.61741
 Alpha  occ. eigenvalues --   -0.61530  -0.60370  -0.59178  -0.57988  -0.57800
 Alpha  occ. eigenvalues --   -0.56914  -0.56895  -0.54911  -0.54317  -0.53277
 Alpha  occ. eigenvalues --   -0.52776  -0.52371  -0.51611  -0.51126  -0.50957
 Alpha  occ. eigenvalues --   -0.49724  -0.49357  -0.47694  -0.46715  -0.41811
 Alpha  occ. eigenvalues --   -0.37954
 Alpha virt. eigenvalues --   -0.16279  -0.14134  -0.13715  -0.13445  -0.12762
 Alpha virt. eigenvalues --   -0.12305  -0.11855  -0.11419  -0.10105  -0.09925
 Alpha virt. eigenvalues --   -0.09314  -0.08951  -0.08174  -0.07943  -0.06781
 Alpha virt. eigenvalues --   -0.06629  -0.06355  -0.05609  -0.05281  -0.05019
 Alpha virt. eigenvalues --   -0.04819  -0.04349  -0.03400  -0.03206  -0.02923
 Alpha virt. eigenvalues --   -0.02434  -0.02092  -0.01952  -0.01843  -0.01486
 Alpha virt. eigenvalues --   -0.01339  -0.01038  -0.00741  -0.00054   0.00214
 Alpha virt. eigenvalues --    0.00327   0.01073   0.01131   0.01381   0.01828
 Alpha virt. eigenvalues --    0.02292   0.02497   0.02613   0.03061   0.03326
 Alpha virt. eigenvalues --    0.03410   0.03857   0.03937   0.04430   0.04518
 Alpha virt. eigenvalues --    0.04706   0.05071   0.05247   0.05813   0.06067
 Alpha virt. eigenvalues --    0.06133   0.06454   0.06611   0.06702   0.06906
 Alpha virt. eigenvalues --    0.07238   0.07507   0.07826   0.08036   0.08461
 Alpha virt. eigenvalues --    0.08594   0.08765   0.09006   0.09608   0.09803
 Alpha virt. eigenvalues --    0.10751   0.10971   0.11362   0.11528   0.11880
 Alpha virt. eigenvalues --    0.12287   0.12639   0.12920   0.13600   0.14067
 Alpha virt. eigenvalues --    0.14420   0.14789   0.15690   0.16209   0.16869
 Alpha virt. eigenvalues --    0.16905   0.17320   0.17593   0.18369   0.18683
 Alpha virt. eigenvalues --    0.19458   0.20003   0.20827   0.21112   0.21567
 Alpha virt. eigenvalues --    0.22242   0.22998   0.23202   0.23970   0.24370
 Alpha virt. eigenvalues --    0.24809   0.25336   0.26271   0.26354   0.27465
 Alpha virt. eigenvalues --    0.27990   0.28452   0.28797   0.30190   0.30745
 Alpha virt. eigenvalues --    0.30942   0.32929   0.33760   0.34105   0.34774
 Alpha virt. eigenvalues --    0.35190   0.35753   0.36620   0.37364   0.37651
 Alpha virt. eigenvalues --    0.38574   0.39292   0.41445   0.41721   0.42529
 Alpha virt. eigenvalues --    0.43620   0.44569   0.45121   0.46662   0.46752
 Alpha virt. eigenvalues --    0.47985   0.48285   0.48933   0.49911   0.50442
 Alpha virt. eigenvalues --    0.50688   0.51008   0.51979   0.52989   0.53810
 Alpha virt. eigenvalues --    0.54457   0.55112   0.55930   0.56330   0.56720
 Alpha virt. eigenvalues --    0.57482   0.57706   0.58191   0.58912   0.59058
 Alpha virt. eigenvalues --    0.59982   0.60164   0.60569   0.60939   0.61647
 Alpha virt. eigenvalues --    0.62495   0.62834   0.63371   0.63828   0.64756
 Alpha virt. eigenvalues --    0.65147   0.65903   0.67988   0.68360   0.68992
 Alpha virt. eigenvalues --    0.69465   0.71717   0.72070   0.74570   0.75990
 Alpha virt. eigenvalues --    0.78443   0.80187   0.81756   0.83026   0.84762
 Alpha virt. eigenvalues --    0.87646   0.88546   0.89511   0.90532   0.91570
 Alpha virt. eigenvalues --    0.92228   0.93848   0.95811   0.98324   1.00027
 Alpha virt. eigenvalues --    1.02038   1.02861   1.04832   1.06553   1.08213
 Alpha virt. eigenvalues --    1.09131   1.10757   1.11866   1.12720   1.13331
 Alpha virt. eigenvalues --    1.14796   1.16116   1.18663   1.20891   1.22661
 Alpha virt. eigenvalues --    1.24667   1.27186   1.28065   1.29134   1.30100
 Alpha virt. eigenvalues --    1.30868   1.32134   1.33998   1.35295   1.37109
 Alpha virt. eigenvalues --    1.37857   1.38823   1.40041   1.40148   1.40625
 Alpha virt. eigenvalues --    1.41107   1.42566   1.43882   1.43913   1.45474
 Alpha virt. eigenvalues --    1.45666   1.46008   1.46916   1.47934   1.48063
 Alpha virt. eigenvalues --    1.48719   1.49812   1.50039   1.50650   1.51237
 Alpha virt. eigenvalues --    1.52463   1.53618   1.54685   1.55746   1.57030
 Alpha virt. eigenvalues --    1.57560   1.58234   1.59242   1.59549   1.60462
 Alpha virt. eigenvalues --    1.61457   1.64048   1.64495   1.66604   1.68320
 Alpha virt. eigenvalues --    1.70503   1.72229   1.72345   1.73919   1.74519
 Alpha virt. eigenvalues --    1.76018   1.77353   1.79048   1.80545   1.81789
 Alpha virt. eigenvalues --    1.82537   1.83974   1.84598   1.86591   1.87984
 Alpha virt. eigenvalues --    1.89730   1.91838   1.94014   1.94774   1.96468
 Alpha virt. eigenvalues --    1.97349   1.98323   1.99666   2.00277   2.01594
 Alpha virt. eigenvalues --    2.03856   2.04453   2.05368   2.06949   2.09516
 Alpha virt. eigenvalues --    2.10695   2.11918   2.15008   2.16325   2.17657
 Alpha virt. eigenvalues --    2.18541   2.19769   2.21942   2.24319   2.27795
 Alpha virt. eigenvalues --    2.30876   2.31332   2.33464   2.34141   2.35060
 Alpha virt. eigenvalues --    2.35511   2.36374   2.36896   2.38625   2.39361
 Alpha virt. eigenvalues --    2.39756   2.40398   2.41252   2.42294   2.43073
 Alpha virt. eigenvalues --    2.43635   2.44014   2.45239   2.46692   2.48189
 Alpha virt. eigenvalues --    2.49308   2.50314   2.52450   2.54180   2.55779
 Alpha virt. eigenvalues --    2.57359   2.58734   2.60733   2.62032   2.63757
 Alpha virt. eigenvalues --    2.65620   2.67010   2.67614   2.70542   2.71943
 Alpha virt. eigenvalues --    2.73911   2.75449   2.77622   2.78760   2.79189
 Alpha virt. eigenvalues --    2.80274   2.82165   2.83841   2.84280   2.87527
 Alpha virt. eigenvalues --    2.90627   2.94700   2.98461   3.00447   3.01472
 Alpha virt. eigenvalues --    3.04193   3.06024   3.07720   3.09444   3.11827
 Alpha virt. eigenvalues --    3.14055   3.16350   3.18244   3.21299   3.24613
 Alpha virt. eigenvalues --    3.26640   3.29254   3.48288   3.55779   3.57602
 Alpha virt. eigenvalues --    3.58134   3.58622   3.59851   3.61895   3.63640
 Alpha virt. eigenvalues --    3.64564   3.64954   3.65787   3.65943   3.72875
 Alpha virt. eigenvalues --    3.74716   3.87360   3.93208   3.95989   3.97306
 Alpha virt. eigenvalues --    4.01049   4.04822   4.06615   4.12064   4.93248
 Alpha virt. eigenvalues --    4.97903   5.10018   5.31445   5.49612   5.79820
 Alpha virt. eigenvalues --    7.01654  13.90970  13.95148  13.95964  23.65062
 Alpha virt. eigenvalues --   23.66969  23.67743  23.68906  23.70645  23.74255
 Alpha virt. eigenvalues --   23.77186  23.77589  23.83168  23.88118  49.80498
 Alpha virt. eigenvalues --   49.93807 163.18552
          Condensed to atoms (all electrons):
               1          2          3          4          5          6
     1  C    6.000414  -0.725377   0.598552  -0.128650  -0.057941  -0.081308
     2  C   -0.725377   8.638849  -2.266276   0.041214  -0.344247  -0.146050
     3  P    0.598552  -2.266276  25.824559  -1.701392  -0.315650  -2.365713
     4  C   -0.128650   0.041214  -1.701392   6.984813  -0.268193   0.125052
     5  C   -0.057941  -0.344247  -0.315650  -0.268193   6.058102   0.223040
     6  C   -0.081308  -0.146050  -2.365713   0.125052   0.223040   7.557734
     7  C    0.001564   0.016491   0.325638  -0.032836   0.001431  -0.453329
     8  C    0.425011  -0.016065  -1.176971  -0.569139   0.291222  -0.517365
     9  C   -0.387857  -0.230148  -1.762629   0.752882  -0.019910   0.833079
    10  O   -0.007408   0.000572   0.223065  -0.007494  -0.002201  -0.002667
    11  C    0.029446  -0.011812  -0.306796  -0.001240  -0.000784  -0.012379
    12  O   -0.000525  -0.000414  -0.003912   0.000029   0.000192   0.000204
    13  C   -0.050232   0.046204   0.040647  -0.000286   0.000335   0.023639
    14  H    0.381262  -0.067106   0.059335  -0.010097   0.011636  -0.001768
    15  H    0.405152  -0.110441   0.006606   0.088689  -0.024040  -0.004807
    16  H    0.373889  -0.246713  -0.161970  -0.067828  -0.013954   0.015074
    17  H   -0.041631   0.497612  -0.227920   0.029562  -0.027811  -0.031724
    18  H   -0.068415   0.494699  -0.125420   0.030864  -0.042520  -0.015798
    19  H   -0.009224  -0.006779  -0.084535   0.470939  -0.046265  -0.033194
    20  H   -0.014185   0.024804  -0.179155   0.437006  -0.027073   0.056463
    21  H    0.007934  -0.003232   0.046534  -0.004465   0.340468  -0.004507
    22  H    0.001014   0.009174  -0.030568  -0.007565   0.415214  -0.026899
    23  H   -0.050304   0.126756  -0.221940   0.039683   0.318075   0.005796
    24  H   -0.017714   0.039758  -0.170661   0.032211  -0.003985   0.490274
    25  H   -0.001365  -0.006652  -0.129627  -0.047105   0.020587   0.466774
    26  H    0.002481  -0.017615  -0.008250   0.013068   0.004481  -0.016989
    27  H   -0.003306   0.003434  -0.171811   0.073219  -0.014039   0.083010
    28  H    0.000053  -0.001980  -0.088721  -0.043163   0.011970   0.035272
    29  H   -0.028094   0.075365  -0.405828   0.110597  -0.001793  -0.037876
    30  H    0.001134  -0.048383  -0.409288   0.025631   0.017425   0.137287
    31  H    0.004814   0.142524  -0.266995   0.010941  -0.004685  -0.014204
    32  H   -0.028968   0.098490   0.179931  -0.007298   0.036407  -0.014590
    33  H   -0.099757  -0.035121   0.403717  -0.004764  -0.003651   0.000442
    34  H    0.013731  -0.006558  -0.010246   0.001400  -0.000259  -0.001137
    35  H    0.004944  -0.004333  -0.002926  -0.000929   0.000196   0.000082
               7          8          9         10         11         12
     1  C    0.001564   0.425011  -0.387857  -0.007408   0.029446  -0.000525
     2  C    0.016491  -0.016065  -0.230148   0.000572  -0.011812  -0.000414
     3  P    0.325638  -1.176971  -1.762629   0.223065  -0.306796  -0.003912
     4  C   -0.032836  -0.569139   0.752882  -0.007494  -0.001240   0.000029
     5  C    0.001431   0.291222  -0.019910  -0.002201  -0.000784   0.000192
     6  C   -0.453329  -0.517365   0.833079  -0.002667  -0.012379   0.000204
     7  C    5.592653   0.020780  -0.017102  -0.001934   0.002568   0.000009
     8  C    0.020780  14.960970  -7.145202  -0.276409   0.077772   0.040235
     9  C   -0.017102  -7.145202  13.347486   0.127615   0.129881  -0.022161
    10  O   -0.001934  -0.276409   0.127615   8.258449  -0.264418  -0.054074
    11  C    0.002568   0.077772   0.129881  -0.264418   6.056170   0.443765
    12  O    0.000009   0.040235  -0.022161  -0.054074   0.443765   7.974653
    13  C   -0.000966  -0.469897   0.279217  -0.041282   0.049754  -0.116594
    14  H    0.001603  -0.000835  -0.007023   0.000926  -0.007071   0.000327
    15  H    0.001930  -0.058714   0.040354  -0.005050  -0.000819   0.000162
    16  H   -0.006540   0.073955   0.156885  -0.001978   0.174399  -0.001839
    17  H    0.007309  -0.014267   0.064206  -0.011081   0.038758  -0.001038
    18  H   -0.004662  -0.013382  -0.006007   0.002101  -0.003007  -0.000044
    19  H    0.008657   0.057075  -0.040900  -0.000757  -0.001622   0.000093
    20  H   -0.013926  -0.018225   0.028159   0.000305  -0.000289  -0.000005
    21  H   -0.000975  -0.011189   0.003315  -0.000074   0.000066   0.000004
    22  H    0.007614   0.028763  -0.025322  -0.000384   0.000658   0.000004
    23  H   -0.003081  -0.043743   0.077557   0.001010   0.004762  -0.000197
    24  H   -0.075187  -0.112118   0.088032  -0.001628   0.000440   0.000043
    25  H   -0.061502   0.026368  -0.001432   0.000566  -0.000438  -0.000006
    26  H    0.376500   0.010269   0.007957   0.000060  -0.000269   0.000002
    27  H    0.361769  -0.069415   0.055758  -0.000547  -0.000553  -0.000003
    28  H    0.393432   0.096844  -0.064971   0.001907  -0.000680   0.000086
    29  H    0.003440   0.447543   0.058325  -0.006011   0.049009  -0.001693
    30  H    0.001495   0.243567   0.282975  -0.026165   0.024642  -0.001110
    31  H   -0.000367   0.071257   0.317350  -0.043277   0.069146   0.003633
    32  H    0.015177   0.003433   0.004312  -0.031060  -0.271353   0.005992
    33  H   -0.003411  -0.266010  -0.101470   0.128204  -0.397530   0.019400
    34  H    0.000102   0.036823  -0.003354  -0.002855  -0.009577  -0.015149
    35  H    0.000023   0.032815  -0.009973   0.001404  -0.018065  -0.011953
              13         14         15         16         17         18
     1  C   -0.050232   0.381262   0.405152   0.373889  -0.041631  -0.068415
     2  C    0.046204  -0.067106  -0.110441  -0.246713   0.497612   0.494699
     3  P    0.040647   0.059335   0.006606  -0.161970  -0.227920  -0.125420
     4  C   -0.000286  -0.010097   0.088689  -0.067828   0.029562   0.030864
     5  C    0.000335   0.011636  -0.024040  -0.013954  -0.027811  -0.042520
     6  C    0.023639  -0.001768  -0.004807   0.015074  -0.031724  -0.015798
     7  C   -0.000966   0.001603   0.001930  -0.006540   0.007309  -0.004662
     8  C   -0.469897  -0.000835  -0.058714   0.073955  -0.014267  -0.013382
     9  C    0.279217  -0.007023   0.040354   0.156885   0.064206  -0.006007
    10  O   -0.041282   0.000926  -0.005050  -0.001978  -0.011081   0.002101
    11  C    0.049754  -0.007071  -0.000819   0.174399   0.038758  -0.003007
    12  O   -0.116594   0.000327   0.000162  -0.001839  -0.001038  -0.000044
    13  C    5.589033   0.008763  -0.003205  -0.004878  -0.003856   0.002450
    14  H    0.008763   0.454702   0.000605  -0.030336  -0.011835  -0.012552
    15  H   -0.003205   0.000605   0.719333  -0.212733   0.023541  -0.029791
    16  H   -0.004878  -0.030336  -0.212733   1.452040   0.000474   0.024974
    17  H   -0.003856  -0.011835   0.023541   0.000474   0.507220   0.001398
    18  H    0.002450  -0.012552  -0.029791   0.024974   0.001398   0.447071
    19  H    0.000610  -0.000296   0.028377  -0.005065   0.002347  -0.003467
    20  H    0.000138   0.000063  -0.000843  -0.002572  -0.002910   0.010000
    21  H   -0.000308  -0.000861   0.013947  -0.003786   0.000641  -0.002808
    22  H   -0.000745  -0.001533   0.027148  -0.006138   0.007265  -0.015803
    23  H    0.000765  -0.000019  -0.075495   0.062397  -0.005837   0.029873
    24  H    0.001683   0.000099   0.000034  -0.009495   0.002551   0.000315
    25  H    0.001084   0.000297  -0.000645   0.005328   0.000853  -0.000240
    26  H    0.000152   0.000010   0.000294   0.000724  -0.001055  -0.000722
    27  H    0.000376  -0.000100   0.002139  -0.003093   0.000855  -0.000412
    28  H    0.000111  -0.000053  -0.001120   0.004361  -0.002289   0.000142
    29  H   -0.020626  -0.002226  -0.014799   0.027703   0.002429   0.005253
    30  H    0.000058   0.000895   0.006457   0.015347   0.011771  -0.007800
    31  H   -0.020903  -0.005581  -0.036334   0.116051  -0.022140   0.019517
    32  H    0.052858   0.026251   0.100824  -0.626571   0.001708  -0.021623
    33  H    0.318858  -0.012848   0.000355  -0.098802  -0.062909   0.003537
    34  H    0.388799   0.000392   0.001378  -0.008172   0.003667  -0.000268
    35  H    0.405398   0.000838   0.001064   0.001289   0.002670  -0.000611
              19         20         21         22         23         24
     1  C   -0.009224  -0.014185   0.007934   0.001014  -0.050304  -0.017714
     2  C   -0.006779   0.024804  -0.003232   0.009174   0.126756   0.039758
     3  P   -0.084535  -0.179155   0.046534  -0.030568  -0.221940  -0.170661
     4  C    0.470939   0.437006  -0.004465  -0.007565   0.039683   0.032211
     5  C   -0.046265  -0.027073   0.340468   0.415214   0.318075  -0.003985
     6  C   -0.033194   0.056463  -0.004507  -0.026899   0.005796   0.490274
     7  C    0.008657  -0.013926  -0.000975   0.007614  -0.003081  -0.075187
     8  C    0.057075  -0.018225  -0.011189   0.028763  -0.043743  -0.112118
     9  C   -0.040900   0.028159   0.003315  -0.025322   0.077557   0.088032
    10  O   -0.000757   0.000305  -0.000074  -0.000384   0.001010  -0.001628
    11  C   -0.001622  -0.000289   0.000066   0.000658   0.004762   0.000440
    12  O    0.000093  -0.000005   0.000004   0.000004  -0.000197   0.000043
    13  C    0.000610   0.000138  -0.000308  -0.000745   0.000765   0.001683
    14  H   -0.000296   0.000063  -0.000861  -0.001533  -0.000019   0.000099
    15  H    0.028377  -0.000843   0.013947   0.027148  -0.075495   0.000034
    16  H   -0.005065  -0.002572  -0.003786  -0.006138   0.062397  -0.009495
    17  H    0.002347  -0.002910   0.000641   0.007265  -0.005837   0.002551
    18  H   -0.003467   0.010000  -0.002808  -0.015803   0.029873   0.000315
    19  H    0.503910  -0.025828  -0.004992   0.017383  -0.054395  -0.002539
    20  H   -0.025828   0.506714  -0.015572  -0.020654   0.021286   0.003711
    21  H   -0.004992  -0.015572   0.450447   0.000976  -0.028961   0.000063
    22  H    0.017383  -0.020654   0.000976   0.568160  -0.111237  -0.000835
    23  H   -0.054395   0.021286  -0.028961  -0.111237   0.725228   0.000820
    24  H   -0.002539   0.003711   0.000063  -0.000835   0.000820   0.512180
    25  H    0.001098  -0.007999  -0.001144  -0.001320  -0.001200  -0.024926
    26  H   -0.000374   0.002153  -0.000054  -0.000472  -0.000254  -0.009483
    27  H   -0.002705   0.014775   0.002056   0.000187  -0.001001   0.026115
    28  H    0.002464  -0.004851  -0.000539   0.000083  -0.000389  -0.027066
    29  H   -0.010526   0.009477  -0.000136  -0.001930   0.018982   0.000541
    30  H    0.008595  -0.007374  -0.000228   0.002033  -0.007375  -0.001064
    31  H   -0.006689   0.003806  -0.000102  -0.005038   0.024318  -0.014008
    32  H    0.011676  -0.001102   0.000691   0.010341  -0.066418   0.006908
    33  H   -0.000611   0.000226   0.000148  -0.000943  -0.007168   0.000745
    34  H    0.000010   0.000004   0.000033   0.000031   0.000498  -0.000100
    35  H    0.000001  -0.000033  -0.000009   0.000043  -0.000188   0.000154
              25         26         27         28         29         30
     1  C   -0.001365   0.002481  -0.003306   0.000053  -0.028094   0.001134
     2  C   -0.006652  -0.017615   0.003434  -0.001980   0.075365  -0.048383
     3  P   -0.129627  -0.008250  -0.171811  -0.088721  -0.405828  -0.409288
     4  C   -0.047105   0.013068   0.073219  -0.043163   0.110597   0.025631
     5  C    0.020587   0.004481  -0.014039   0.011970  -0.001793   0.017425
     6  C    0.466774  -0.016989   0.083010   0.035272  -0.037876   0.137287
     7  C   -0.061502   0.376500   0.361769   0.393432   0.003440   0.001495
     8  C    0.026368   0.010269  -0.069415   0.096844   0.447543   0.243567
     9  C   -0.001432   0.007957   0.055758  -0.064971   0.058325   0.282975
    10  O    0.000566   0.000060  -0.000547   0.001907  -0.006011  -0.026165
    11  C   -0.000438  -0.000269  -0.000553  -0.000680   0.049009   0.024642
    12  O   -0.000006   0.000002  -0.000003   0.000086  -0.001693  -0.001110
    13  C    0.001084   0.000152   0.000376   0.000111  -0.020626   0.000058
    14  H    0.000297   0.000010  -0.000100  -0.000053  -0.002226   0.000895
    15  H   -0.000645   0.000294   0.002139  -0.001120  -0.014799   0.006457
    16  H    0.005328   0.000724  -0.003093   0.004361   0.027703   0.015347
    17  H    0.000853  -0.001055   0.000855  -0.002289   0.002429   0.011771
    18  H   -0.000240  -0.000722  -0.000412   0.000142   0.005253  -0.007800
    19  H    0.001098  -0.000374  -0.002705   0.002464  -0.010526   0.008595
    20  H   -0.007999   0.002153   0.014775  -0.004851   0.009477  -0.007374
    21  H   -0.001144  -0.000054   0.002056  -0.000539  -0.000136  -0.000228
    22  H   -0.001320  -0.000472   0.000187   0.000083  -0.001930   0.002033
    23  H   -0.001200  -0.000254  -0.001001  -0.000389   0.018982  -0.007375
    24  H   -0.024926  -0.009483   0.026115  -0.027066   0.000541  -0.001064
    25  H    0.496304  -0.007579  -0.017263   0.024157  -0.003950   0.007347
    26  H   -0.007579   0.479839  -0.017169  -0.020435  -0.000189   0.006270
    27  H   -0.017263  -0.017169   0.606168  -0.074843  -0.000756  -0.000330
    28  H    0.024157  -0.020435  -0.074843   0.612863  -0.007704   0.004910
    29  H   -0.003950  -0.000189  -0.000756  -0.007704   0.556119  -0.033015
    30  H    0.007347   0.006270  -0.000330   0.004910  -0.033015   0.558396
    31  H   -0.000752  -0.000772  -0.002861   0.004209   0.058042  -0.056584
    32  H   -0.002869  -0.000690   0.003131  -0.006155  -0.095800   0.019780
    33  H   -0.000322  -0.000042   0.000479  -0.000092  -0.012228  -0.013546
    34  H   -0.000069   0.000004  -0.000011  -0.000068   0.001540  -0.000137
    35  H    0.000026   0.000000  -0.000002   0.000061  -0.000835   0.000644
              31         32         33         34         35
     1  C    0.004814  -0.028968  -0.099757   0.013731   0.004944
     2  C    0.142524   0.098490  -0.035121  -0.006558  -0.004333
     3  P   -0.266995   0.179931   0.403717  -0.010246  -0.002926
     4  C    0.010941  -0.007298  -0.004764   0.001400  -0.000929
     5  C   -0.004685   0.036407  -0.003651  -0.000259   0.000196
     6  C   -0.014204  -0.014590   0.000442  -0.001137   0.000082
     7  C   -0.000367   0.015177  -0.003411   0.000102   0.000023
     8  C    0.071257   0.003433  -0.266010   0.036823   0.032815
     9  C    0.317350   0.004312  -0.101470  -0.003354  -0.009973
    10  O   -0.043277  -0.031060   0.128204  -0.002855   0.001404
    11  C    0.069146  -0.271353  -0.397530  -0.009577  -0.018065
    12  O    0.003633   0.005992   0.019400  -0.015149  -0.011953
    13  C   -0.020903   0.052858   0.318858   0.388799   0.405398
    14  H   -0.005581   0.026251  -0.012848   0.000392   0.000838
    15  H   -0.036334   0.100824   0.000355   0.001378   0.001064
    16  H    0.116051  -0.626571  -0.098802  -0.008172   0.001289
    17  H   -0.022140   0.001708  -0.062909   0.003667   0.002670
    18  H    0.019517  -0.021623   0.003537  -0.000268  -0.000611
    19  H   -0.006689   0.011676  -0.000611   0.000010   0.000001
    20  H    0.003806  -0.001102   0.000226   0.000004  -0.000033
    21  H   -0.000102   0.000691   0.000148   0.000033  -0.000009
    22  H   -0.005038   0.010341  -0.000943   0.000031   0.000043
    23  H    0.024318  -0.066418  -0.007168   0.000498  -0.000188
    24  H   -0.014008   0.006908   0.000745  -0.000100   0.000154
    25  H   -0.000752  -0.002869  -0.000322  -0.000069   0.000026
    26  H   -0.000772  -0.000690  -0.000042   0.000004   0.000000
    27  H   -0.002861   0.003131   0.000479  -0.000011  -0.000002
    28  H    0.004209  -0.006155  -0.000092  -0.000068   0.000061
    29  H    0.058042  -0.095800  -0.012228   0.001540  -0.000835
    30  H   -0.056584   0.019780  -0.013546  -0.000137   0.000644
    31  H    0.839898  -0.335455  -0.078440   0.003257  -0.008843
    32  H   -0.335455   1.468321   0.080644  -0.005524   0.001815
    33  H   -0.078440   0.080644   1.281979  -0.077719  -0.077364
    34  H    0.003257  -0.005524  -0.077719   0.468536  -0.000052
    35  H   -0.008843   0.001815  -0.077364  -0.000052   0.458685
 Mulliken charges:
               1
     1  C   -0.449133
     2  C    0.039360
     3  P   -0.113384
     4  C   -0.365358
     5  C   -0.531783
     6  C   -0.270919
     7  C   -0.464369
     8  C   -0.165758
     9  C   -0.809883
    10  O    0.042568
    11  C    0.157465
    12  O   -0.258116
    13  C   -0.477152
    14  H    0.224137
    15  H    0.110449
    16  H    0.007572
    17  H    0.261470
    18  H    0.303159
    19  H    0.227531
    20  H    0.223506
    21  H    0.216623
    22  H    0.161297
    23  H    0.221395
    24  H    0.264131
    25  H    0.267618
    26  H    0.198153
    27  H    0.146749
    28  H    0.152196
    29  H    0.261648
    30  H    0.235742
    31  H    0.235266
    32  H    0.386786
    33  H    0.116015
    34  H    0.221050
    35  H    0.223966
 Sum of Mulliken charges =   1.00000
 Mulliken charges with hydrogens summed into heavy atoms:
               1
     1  C   -0.106975
     2  C    0.603989
     3  P   -0.113384
     4  C    0.085678
     5  C    0.067533
     6  C    0.260830
     7  C    0.032729
     8  C    0.331632
     9  C   -0.187830
    10  O    0.042568
    11  C    0.157465
    12  O   -0.258116
    13  C    0.083880
 Electronic spatial extent (au):  <R**2>=           3768.1120
 Charge=              1.0000 electrons
 Dipole moment (field-independent basis, Debye):
    X=              9.6618    Y=              2.1426    Z=              2.3951  Tot=             10.1822
 Quadrupole moment (field-independent basis, Debye-Ang):
   XX=            -82.5982   YY=            -76.1078   ZZ=            -79.8838
   XY=            -11.2098   XZ=             -8.3311   YZ=             -3.4473
 Traceless Quadrupole moment (field-independent basis, Debye-Ang):
   XX=             -3.0682   YY=              3.4221   ZZ=             -0.3539
   XY=            -11.2098   XZ=             -8.3311   YZ=             -3.4473
 Octapole moment (field-independent basis, Debye-Ang**2):
  XXX=            143.7390  YYY=             -4.5353  ZZZ=             -1.2940  XYY=             22.5049
  XXY=             32.7223  XXZ=             33.0125  XZZ=              8.5154  YZZ=              2.6199
  YYZ=              6.5954  XYZ=             -2.4890
 Hexadecapole moment (field-independent basis, Debye-Ang**3):
 XXXX=          -3671.6416 YYYY=          -1047.2419 ZZZZ=           -436.5479 XXXY=           -188.9915
 XXXZ=           -141.8015 YYYX=            -24.7533 YYYZ=            -12.0020 ZZZX=             -7.4968
 ZZZY=             -5.4748 XXYY=           -686.0156 XXZZ=           -591.2296 YYZZ=           -246.7347
 XXYZ=            -53.2713 YYXZ=              6.5686 ZZXY=              6.1185
 N-N= 1.007635543995D+03 E-N=-4.076624833918D+03  KE= 8.829914949890D+02

 **********************************************************************

            Electrostatic Properties Using The SCF Density

 **********************************************************************

       Atomic Center    1 is at   0.098815  2.248660  0.477606
       Atomic Center    2 is at   0.900838  1.225762  1.271311
       Atomic Center    3 is at   1.447157 -0.150677  0.139302
       Atomic Center    4 is at   2.509564  0.548913 -1.223181
       Atomic Center    5 is at   2.642711  2.055162 -1.041469
       Atomic Center    6 is at   2.429456 -1.401009  1.112059
       Atomic Center    7 is at   2.876535 -2.526339  0.188327
       Atomic Center    8 is at  -0.050490 -0.975970 -0.602615
       Atomic Center    9 is at  -1.312833 -0.301305 -0.082185
       Atomic Center   10 is at  -2.439283 -0.922045 -0.640216
       Atomic Center   11 is at  -3.553481 -0.335200 -0.188089
       Atomic Center   12 is at  -4.635017 -0.728990 -0.554799
       Atomic Center   13 is at  -3.459054  0.818557  0.779902
       Atomic Center   14 is at  -0.227394  3.070536  1.153531
       Atomic Center   15 is at   0.733599  2.667330 -0.335125
       Atomic Center   16 is at  -0.795435  1.755884  0.034594
       Atomic Center   17 is at   0.266053  0.807093  2.084042
       Atomic Center   18 is at   1.795088  1.718538  1.714323
       Atomic Center   19 is at   2.037399  0.334887 -2.208077
       Atomic Center   20 is at   3.518295  0.080144 -1.184640
       Atomic Center   21 is at   3.277077  2.472890 -1.855012
       Atomic Center   22 is at   3.114876  2.269189 -0.056573
       Atomic Center   23 is at   1.633980  2.523932 -1.080010
       Atomic Center   24 is at   1.794886 -1.819211  1.925199
       Atomic Center   25 is at   3.323395 -0.907244  1.554593
       Atomic Center   26 is at   3.463069 -3.272916  0.769164
       Atomic Center   27 is at   3.511105 -2.108139 -0.624814
       Atomic Center   28 is at   1.982595 -3.020105 -0.254208
       Atomic Center   29 is at  -0.012231 -0.885468 -1.711270
       Atomic Center   30 is at  -0.060480 -2.051766 -0.317429
       Atomic Center   31 is at  -1.351093 -0.391807  1.026468
       Atomic Center   32 is at  -1.302843  0.774491 -0.367373
       Atomic Center   33 is at  -2.389072  1.034407  0.997425
       Atomic Center   34 is at  -3.934714  1.718938  0.330644
       Atomic Center   35 is at  -3.983471  0.553441  1.725137
 -----------------------------------------------------------------

              Electrostatic Properties (Atomic Units)

 -----------------------------------------------------------------
    Center     Electric         -------- Electric Field --------
               Potential          X             Y             Z
 -----------------------------------------------------------------
    1 Atom    -14.622511     -0.002919      0.006464     -0.000603
    2 Atom    -14.576181      0.000035      0.000688      0.000390
    3 Atom    -53.943412      0.002704     -0.000708      0.002273
    4 Atom    -14.579145      0.000203      0.000917     -0.000594
    5 Atom    -14.617174      0.003176      0.005072     -0.002489
    6 Atom    -14.581958     -0.000044     -0.000522     -0.000670
    7 Atom    -14.616355      0.002218     -0.004259     -0.001670
    8 Atom    -14.578935     -0.000682     -0.000346     -0.000469
    9 Atom    -14.556011      0.009954      0.004595      0.003972
   10 Atom    -22.195685      0.000523     -0.036884     -0.030352
   11 Atom    -14.538833     -0.013407      0.011252      0.008998
   12 Atom    -22.290878     -0.046643     -0.016796     -0.015649
   13 Atom    -14.644556     -0.000279      0.003006      0.002488
   14 Atom     -0.962396     -0.002233      0.004280      0.000799
   15 Atom     -0.946988     -0.030125      0.008454      0.019867
   16 Atom     -0.944047      0.013003      0.034463      0.008502
   17 Atom     -0.922535      0.003052     -0.004481      0.006366
   18 Atom     -0.923183      0.004798     -0.003203      0.005078
   19 Atom     -0.928183     -0.000421     -0.006087     -0.003353
   20 Atom     -0.926841      0.002232     -0.005624     -0.001264
   21 Atom     -0.964957      0.003360      0.002823     -0.000920
   22 Atom     -0.959783      0.002824      0.007810      0.000773
   23 Atom     -0.948427      0.029453      0.002384     -0.021349
   24 Atom     -0.930027     -0.003685      0.003073      0.006374
   25 Atom     -0.929472      0.000947      0.006338      0.004947
   26 Atom     -0.965151      0.001905     -0.003791     -0.001226
   27 Atom     -0.964867      0.004199     -0.005603     -0.004444
   28 Atom     -0.964858      0.001448     -0.007357     -0.003776
   29 Atom     -0.923295      0.002227     -0.003035     -0.004837
   30 Atom     -0.922026      0.001015     -0.005410     -0.001472
   31 Atom     -0.946851      0.003605     -0.001474      0.003734
   32 Atom     -0.936872     -0.010474     -0.027557     -0.010992
   33 Atom     -0.976471     -0.016779      0.014444      0.012914
   34 Atom     -0.976430     -0.004099      0.001784     -0.000455
   35 Atom     -0.976468     -0.003929      0.000005      0.001643
 -----------------------------------------------------------------
 -----------------------------------------------------
    Center         ---- Electric Field Gradient ----
                     XX            YY            ZZ
 -----------------------------------------------------
    1 Atom     -500.324551   -500.378491   -500.324731
    2 Atom     -500.357584   -500.495655   -500.445262
    3 Atom    -8863.244983  -8863.215926  -8863.186651
    4 Atom     -500.426805   -500.379808   -500.508152
    5 Atom     -500.218746   -500.421485   -500.249558
    6 Atom     -500.442033   -500.491769   -500.437289
    7 Atom     -500.189435   -500.267025   -500.228627
    8 Atom     -500.598146   -500.452434   -500.438419
    9 Atom     -500.812282   -500.466135   -500.496709
   10 Atom    -1239.048167  -1236.727066  -1236.573015
   11 Atom     -501.154438   -501.267943   -501.364693
   12 Atom    -1238.485527  -1237.874297  -1238.360649
   13 Atom     -500.259919   -500.345625   -500.320543
   14 Atom       -1.666765     -1.851200     -1.785843
   15 Atom       -1.844474     -1.746571     -1.921709
   16 Atom       -1.965050     -1.823413     -1.767546
   17 Atom       -1.761620     -1.699818     -1.842095
   18 Atom       -1.893695     -1.704161     -1.689805
   19 Atom       -1.713083     -1.651428     -1.938253
   20 Atom       -1.953008     -1.709396     -1.635173
   21 Atom       -1.763290     -1.694848     -1.848313
   22 Atom       -1.729194     -1.682584     -1.979023
   23 Atom       -2.053980     -1.775452     -1.722163
   24 Atom       -1.769056     -1.684894     -1.840327
   25 Atom       -1.881311     -1.719758     -1.690256
   26 Atom       -1.739787     -1.810417     -1.744441
   27 Atom       -1.785740     -1.724774     -1.871470
   28 Atom       -1.922377     -1.738613     -1.718763
   29 Atom       -1.629983     -1.626496     -2.012412
   30 Atom       -1.627276     -1.987978     -1.648586
   31 Atom       -1.728639     -1.711903     -2.089465
   32 Atom       -1.769729     -2.129174     -1.772103
   33 Atom       -2.069798     -1.716815     -1.715542
   34 Atom       -1.683084     -1.877105     -1.682273
   35 Atom       -1.697893     -1.639188     -1.902258
 -----------------------------------------------------
 -----------------------------------------------------
    Center         ---- Electric Field Gradient ----
                     XY            XZ            YZ
 -----------------------------------------------------
    1 Atom        0.093865     -0.076594      0.067502
    2 Atom        0.066761      0.054245     -0.129455
    3 Atom       -0.046942     -0.026849     -0.054977
    4 Atom       -0.066023      0.139108      0.091022
    5 Atom       -0.029395     -0.030203     -0.021883
    6 Atom        0.108398     -0.085626      0.109064
    7 Atom        0.032082      0.038661     -0.084135
    8 Atom       -0.090984     -0.094740     -0.069258
    9 Atom       -0.154770     -0.137406     -0.109560
   10 Atom       -0.102817     -0.214638     -0.575912
   11 Atom        0.157504      0.146901      0.297043
   12 Atom       -0.687066     -0.542570      1.176762
   13 Atom       -0.015208     -0.013786     -0.071535
   14 Atom        0.089403      0.068027     -0.177787
   15 Atom       -0.070879      0.189765      0.104396
   16 Atom       -0.158606     -0.137000     -0.084280
   17 Atom       -0.088101      0.163473      0.110890
   18 Atom       -0.136049     -0.124467     -0.069157
   19 Atom       -0.039663     -0.149166     -0.068864
   20 Atom        0.153643     -0.014522      0.012741
   21 Atom       -0.084808      0.167862      0.105620
   22 Atom       -0.033246     -0.147993     -0.065652
   23 Atom        0.153292      0.020030      0.000353
   24 Atom       -0.079915      0.167767      0.106157
   25 Atom       -0.143684     -0.125537     -0.069882
   26 Atom        0.141705     -0.109623      0.136595
   27 Atom       -0.084511      0.169049      0.110141
   28 Atom       -0.137364     -0.127554     -0.073677
   29 Atom       -0.003440      0.021738      0.035861
   30 Atom        0.003906     -0.002304      0.101013
   31 Atom       -0.001481      0.006203      0.025834
   32 Atom       -0.025426     -0.009139      0.070081
   33 Atom       -0.069914     -0.067486     -0.023196
   34 Atom        0.138000     -0.069863      0.129183
   35 Atom       -0.046107      0.160117      0.079690
 -----------------------------------------------------
 -----------------------------------------------------
    Center         ---- Electric Field Gradient ----
                   ----       Eigenvalues       ----
 -----------------------------------------------------
    1 Atom     -500.505136   -500.280932   -500.241705
    2 Atom     -500.629549   -500.338614   -500.330338
    3 Atom    -8863.305713  -8863.198153  -8863.143694
    4 Atom     -500.657873   -500.334568   -500.322324
    5 Atom     -500.429464   -500.260983   -500.199341
    6 Atom     -500.663215   -500.355875   -500.352002
    7 Atom     -500.349310   -500.179572   -500.156205
    8 Atom     -500.694225   -500.419813   -500.374961
    9 Atom     -500.936010   -500.471070   -500.368047
   10 Atom    -1239.077010  -1237.205230  -1236.066009
   11 Atom     -501.617528   -501.310800   -500.858746
   12 Atom    -1239.319437  -1238.876046  -1236.524990
   13 Atom     -500.408541   -500.260624   -500.256921
   14 Atom       -2.033628     -1.640519     -1.629661
   15 Atom       -2.119177     -1.709684     -1.683893
   16 Atom       -2.137778     -1.721061     -1.697171
   17 Atom       -2.030809     -1.639348     -1.633376
   18 Atom       -2.025153     -1.635135     -1.627373
   19 Atom       -2.029211     -1.641884     -1.631670
   20 Atom       -2.028153     -1.639876     -1.629549
   21 Atom       -2.033182     -1.641062     -1.632207
   22 Atom       -2.062028     -1.669025     -1.659747
   23 Atom       -2.122647     -1.725338     -1.703610
   24 Atom       -2.027655     -1.637705     -1.628916
   25 Atom       -2.026700     -1.636721     -1.627904
   26 Atom       -2.028947     -1.637106     -1.628591
   27 Atom       -2.060423     -1.667412     -1.654149
   28 Atom       -2.059397     -1.666929     -1.653428
   29 Atom       -2.016962     -1.629083     -1.622845
   30 Atom       -2.015816     -1.627439     -1.620586
   31 Atom       -2.091334     -1.728590     -1.710083
   32 Atom       -2.143887     -1.778032     -1.749087
   33 Atom       -2.096257     -1.712925     -1.692973
   34 Atom       -2.013821     -1.618000     -1.610641
   35 Atom       -2.012702     -1.617118     -1.609519
 -----------------------------------------------------
 -----------------------------------------------------
    Center         ---- Electric Field Gradient ----
                       ( tensor representation )
                   3XX-RR        3YY-RR        3ZZ-RR
 -----------------------------------------------------
    1 Atom        0.018040     -0.035900      0.017860
    2 Atom        0.075250     -0.062821     -0.012428
    3 Atom       -0.029130     -0.000072      0.029202
    4 Atom        0.011450      0.058447     -0.069897
    5 Atom        0.077850     -0.124888      0.047038
    6 Atom        0.014998     -0.034739      0.019741
    7 Atom        0.038927     -0.038663     -0.000264
    8 Atom       -0.101813      0.043899      0.057914
[...]
 Dipole moment (field-independent basis, Debye):
    X=              8.8784    Y=              3.1360    Z=             -0.7554  Tot=              9.4462
 Quadrupole moment (field-independent basis, Debye-Ang):
   XX=            -75.8792   YY=            -76.1883   ZZ=            -76.7226
   XY=            -14.7711   XZ=              6.6636   YZ=              1.0950
 Traceless Quadrupole moment (field-independent basis, Debye-Ang):
   XX=              0.3841   YY=              0.0751   ZZ=             -0.4592
   XY=            -14.7711   XZ=              6.6636   YZ=              1.0950
 Octapole moment (field-independent basis, Debye-Ang**2):
  XXX=             99.6640  YYY=             -1.0339  ZZZ=             -1.4147  XYY=             29.0167
  XXY=             50.7733  XXZ=            -28.5284  XZZ=              9.8112  YZZ=              4.9041
  YYZ=              8.0765  XYZ=             -3.0986
 Hexadecapole moment (field-independent basis, Debye-Ang**3):
 XXXX=          -3878.3411 YYYY=          -1003.1833 ZZZZ=           -540.3004 XXXY=           -283.3725
 XXXZ=            110.3482 YYYX=            -21.3460 YYYZ=             19.2736 ZZZX=            -12.6087
 ZZZY=             -5.2638 XXYY=           -769.5088 XXZZ=           -660.8849 YYZZ=           -262.5516
 XXYZ=             -4.3280 YYXZ=             19.8402 ZZXY=             13.0835
 N-N= 9.785205415423D+02 E-N=-4.019267351428D+03  KE= 8.830670630788D+02

 **********************************************************************

            Electrostatic Properties Using The SCF Density

 **********************************************************************

       Atomic Center    1 is at   1.077233  2.700502  1.013956
       Atomic Center    2 is at   1.816135  1.393272  1.334148
       Atomic Center    3 is at   1.439717 -0.052920  0.274157
       Atomic Center    4 is at   1.682160  0.362154 -1.491739
       Atomic Center    5 is at   3.113711  0.780741 -1.861189
       Atomic Center    6 is at   2.588043 -1.388267  0.779666
       Atomic Center    7 is at   2.519273 -2.675574 -0.054730
       Atomic Center    8 is at  -0.262561 -0.673760  0.540316
       Atomic Center    9 is at  -1.431042  0.118767 -0.057704
       Atomic Center   10 is at  -2.573199 -0.667753  0.260795
       Atomic Center   11 is at  -3.863865 -0.292730 -0.094955
       Atomic Center   12 is at  -4.749669 -1.026785  0.216923
       Atomic Center   13 is at  -4.030045  1.008178 -0.841289
       Atomic Center   14 is at   1.434037  3.482335  1.686622
       Atomic Center   15 is at   1.262557  3.040920 -0.006761
       Atomic Center   16 is at  -0.000047  2.614308  1.162520
       Atomic Center   17 is at   1.618745  1.073785  2.362519
       Atomic Center   18 is at   2.898564  1.537900  1.259940
       Atomic Center   19 is at   0.972039  1.158688 -1.731772
       Atomic Center   20 is at   1.369804 -0.516343 -2.064658
       Atomic Center   21 is at   3.155717  1.007493 -2.927751
       Atomic Center   22 is at   3.836909 -0.013677 -1.667768
       Atomic Center   23 is at   3.432394  1.676638 -1.324582
       Atomic Center   24 is at   2.371101 -1.593272  1.833169
       Atomic Center   25 is at   3.593151 -0.957421  0.748758
       Atomic Center   26 is at   3.251979 -3.386996  0.329833
       Atomic Center   27 is at   2.757106 -2.498177 -1.105423
       Atomic Center   28 is at   1.541175 -3.156292  0.003870
       Atomic Center   29 is at  -0.291333 -1.686044  0.127109
       Atomic Center   30 is at  -0.403931 -0.772383  1.621055
       Atomic Center   31 is at  -1.506239  1.115504  0.385509
       Atomic Center   32 is at  -1.320422  0.224022 -1.141919
       Atomic Center   33 is at  -3.674837  1.854146 -0.246512
       Atomic Center   34 is at  -3.477542  1.000126 -1.784694
       Atomic Center   35 is at  -5.088001  1.145143 -1.052055
 -----------------------------------------------------------------

              Electrostatic Properties (Atomic Units)

 -----------------------------------------------------------------
    Center     Electric         -------- Electric Field --------
               Potential          X             Y             Z
 -----------------------------------------------------------------
    1 Atom    -14.621187     -0.000206      0.002189      0.000574
    2 Atom    -14.588152     -0.001765      0.001649     -0.001127
    3 Atom    -53.953289      0.001808      0.000127     -0.000344
    4 Atom    -14.587288      0.002926      0.000144      0.000409
    5 Atom    -14.621596      0.001689      0.000696     -0.001724
    6 Atom    -14.590321     -0.000817     -0.002138     -0.001982
    7 Atom    -14.625355      0.000701     -0.002335     -0.000326
    8 Atom    -14.591194     -0.000789      0.001617     -0.000897
    9 Atom    -14.557137      0.006208      0.005919     -0.002672
   10 Atom    -22.214927      0.001404     -0.037760      0.021534
   11 Atom    -14.538670     -0.003742      0.012151     -0.007256
   12 Atom    -22.285538     -0.040781     -0.032844      0.013812
   13 Atom    -14.653700     -0.002842      0.000167     -0.000466
   14 Atom     -0.970066      0.005866      0.013317      0.011244
   15 Atom     -0.967705      0.003109      0.006031     -0.016965
   16 Atom     -0.967786     -0.018058     -0.001078      0.002637
   17 Atom     -0.933226     -0.003062     -0.004756      0.017574
   18 Atom     -0.933703      0.018197      0.003001     -0.000689
   19 Atom     -0.931665     -0.011820      0.013484     -0.004799
   20 Atom     -0.932276     -0.005147     -0.014516     -0.010284
   21 Atom     -0.970224      0.000947      0.003859     -0.017952
   22 Atom     -0.968709      0.012382     -0.013185      0.002918
   23 Atom     -0.968308      0.005526      0.015107      0.008705
   24 Atom     -0.935207     -0.003098     -0.003898      0.017735
   25 Atom     -0.935835      0.017329      0.006696     -0.000291
   26 Atom     -0.973648      0.012256     -0.012138      0.006333
   27 Atom     -0.971965      0.004170      0.002508     -0.017603
   28 Atom     -0.972405     -0.016147     -0.008535      0.000933
   29 Atom     -0.932888     -0.001170     -0.017437     -0.006645
   30 Atom     -0.932446     -0.002980     -0.002162      0.018220
   31 Atom     -0.959297     -0.001989      0.016657      0.007499
   32 Atom     -0.958890      0.001197      0.001489     -0.018122
   33 Atom     -0.980887      0.005295      0.014427      0.009567
   34 Atom     -0.981070      0.008562      0.000284     -0.015934
   35 Atom     -0.997532     -0.018522      0.002504     -0.003753
 -----------------------------------------------------------------
 -----------------------------------------------------
    Center         ---- Electric Field Gradient ----
                     XX            YY            ZZ
 -----------------------------------------------------
    1 Atom     -500.189754   -500.309753   -500.140523
    2 Atom     -500.319538   -500.477256   -500.396266
    3 Atom    -8862.873216  -8862.785555  -8862.798602
    4 Atom     -500.326281   -500.303641   -500.528104
    5 Atom     -500.337945   -500.154859   -500.133644
    6 Atom     -500.412992   -500.465779   -500.340958
    7 Atom     -500.123571   -500.305087   -500.199763
    8 Atom     -500.631285   -500.441007   -500.396046
    9 Atom     -500.648077   -500.339195   -500.177695
   10 Atom    -1239.023482  -1236.737708  -1236.134281
   11 Atom     -501.348904   -501.112187   -501.513774
   12 Atom    -1237.926979  -1238.039740  -1238.829235
   13 Atom     -500.200211   -500.385664   -500.327303
   14 Atom       -1.715750     -1.896741     -1.837501
   15 Atom       -1.693905     -1.727419     -2.081857
   16 Atom       -2.131569     -1.695424     -1.687976
   17 Atom       -1.667815     -1.705039     -2.041706
   18 Atom       -2.091169     -1.674601     -1.660579
   19 Atom       -1.853529     -1.897859     -1.686334
   20 Atom       -1.694075     -1.946822     -1.779650
   21 Atom       -1.672302     -1.681207     -2.096943
   22 Atom       -1.879612     -1.925943     -1.694233
   23 Atom       -1.721700     -1.982944     -1.794344
   24 Atom       -1.674831     -1.675784     -2.062156
   25 Atom       -2.032073     -1.740637     -1.657403
   26 Atom       -1.867476     -1.855814     -1.723579
   27 Atom       -1.697972     -1.703280     -2.101566
   28 Atom       -2.050577     -1.767669     -1.679416
   29 Atom       -1.658337     -2.024349     -1.713418
   30 Atom       -1.660877     -1.646620     -2.077896
   31 Atom       -1.732999     -2.081032     -1.784535
   32 Atom       -1.733623     -1.714481     -2.140851
   33 Atom       -1.706926     -1.927856     -1.793468
   34 Atom       -1.778537     -1.660703     -1.992192
   35 Atom       -2.089390     -1.668963     -1.674795
 -----------------------------------------------------
 -----------------------------------------------------
    Center         ---- Electric Field Gradient ----
                     XY            XZ            YZ
 -----------------------------------------------------
    1 Atom        0.099631     -0.009963      0.046936
    2 Atom       -0.030929     -0.043130     -0.114751
    3 Atom       -0.036713      0.029467     -0.005719
    4 Atom       -0.014012      0.039875      0.056894
    5 Atom       -0.061874      0.064780      0.013425
    6 Atom        0.122631     -0.053417      0.041983
    7 Atom       -0.010297      0.006238     -0.111526
    8 Atom       -0.058285      0.019838      0.044645
    9 Atom       -0.195461      0.049778      0.105910
   10 Atom       -0.585630     -0.016093      0.408464
   11 Atom        0.181181     -0.065802     -0.292097
   12 Atom       -0.879264      0.656547     -0.850983
   13 Atom        0.027085     -0.002878      0.052854
   14 Atom       -0.102640     -0.096153     -0.197370
   15 Atom       -0.018389      0.075018      0.127453
   16 Atom       -0.040879      0.059856      0.007285
   17 Atom       -0.025240      0.077474      0.121680
   18 Atom       -0.053724      0.034813     -0.000508
   19 Atom        0.211362     -0.055836      0.070237
   20 Atom       -0.104525     -0.060936     -0.181910
   21 Atom       -0.005286      0.013245      0.091810
   22 Atom        0.215381     -0.051785      0.065362
   23 Atom       -0.106934     -0.059288     -0.187530
   24 Atom       -0.010807      0.089408      0.076130
   25 Atom       -0.159938      0.014208      0.006495
   26 Atom        0.196472     -0.111581      0.099928
   27 Atom       -0.017449      0.094738      0.074763
   28 Atom       -0.173550      0.025409      0.005829
   29 Atom       -0.001684     -0.003376     -0.157193
   30 Atom       -0.002477      0.047948      0.035091
   31 Atom        0.022967      0.013107     -0.164593
   32 Atom       -0.009342      0.044265      0.041764
   33 Atom       -0.114527     -0.087274     -0.188174
   34 Atom        0.007475      0.200792     -0.001538
   35 Atom        0.056529     -0.086698      0.014655
 -----------------------------------------------------
 -----------------------------------------------------
    Center         ---- Electric Field Gradient ----
                   ----       Eigenvalues       ----
 -----------------------------------------------------
    1 Atom     -500.375021   -500.146685   -500.118325
    2 Atom     -500.568598   -500.329461   -500.295002
    3 Atom    -8862.893676  -8862.799662  -8862.764034
    4 Atom     -500.549617   -500.319002   -500.289408
    5 Atom     -500.374892   -500.137501   -500.114055
    6 Atom     -500.583008   -500.333666   -500.303055
    7 Atom     -500.375873   -500.137414   -500.115134
    8 Atom     -500.651625   -500.448993   -500.367719
    9 Atom     -500.757291   -500.287033   -500.120643
   10 Atom    -1239.166952  -1236.827325  -1235.901194
   11 Atom     -501.669964   -501.424391   -500.880510
   12 Atom    -1239.380435  -1238.820142  -1236.595376
   13 Atom     -500.419671   -500.297355   -500.196152
   14 Atom       -2.116039     -1.672558     -1.661395
   15 Atom       -2.136346     -1.689582     -1.677253
   16 Atom       -2.143346     -1.691869     -1.679754
   17 Atom       -2.096565     -1.665668     -1.652328
   18 Atom       -2.100687     -1.669778     -1.655884
   19 Atom       -2.107272     -1.670996     -1.659454
   20 Atom       -2.099480     -1.666030     -1.655036
   21 Atom       -2.116759     -1.672419     -1.661274
   22 Atom       -2.135115     -1.688676     -1.675998
   23 Atom       -2.134678     -1.688559     -1.675750
   24 Atom       -2.095798     -1.665061     -1.651912
   25 Atom       -2.103267     -1.669993     -1.656852
   26 Atom       -2.115385     -1.671405     -1.660079
   27 Atom       -2.136308     -1.689713     -1.676797
   28 Atom       -2.134442     -1.688301     -1.674919
   29 Atom       -2.089989     -1.658868     -1.647247
   30 Atom       -2.086149     -1.655624     -1.643621
   31 Atom       -2.155934     -1.731701     -1.710931
   32 Atom       -2.149762     -1.730037     -1.709156
   33 Atom       -2.111639     -1.663960     -1.652651
   34 Atom       -2.112865     -1.665061     -1.653506
   35 Atom       -2.114422     -1.663135     -1.655591
 -----------------------------------------------------
 -----------------------------------------------------
    Center         ---- Electric Field Gradient ----
                       ( tensor representation )
                   3XX-RR        3YY-RR        3ZZ-RR
 -----------------------------------------------------
    1 Atom        0.023589     -0.096409      0.072820
    2 Atom        0.078148     -0.079569      0.001421
    3 Atom       -0.054092      0.033570      0.020522
    4 Atom        0.059727      0.082368     -0.142095
    5 Atom       -0.129129      0.053957      0.075172
    6 Atom       -0.006415     -0.059203      0.065618
    7 Atom        0.085903     -0.095613      0.009710
    8 Atom       -0.141839      0.048439      0.093400
    9 Atom       -0.259755      0.049128      0.210627
   10 Atom       -1.724992      0.560783      1.164209
   11 Atom       -0.023949      0.212768     -0.188819
   12 Atom        0.338339      0.225578     -0.563917
   13 Atom        0.104182     -0.081271     -0.022910
   14 Atom        0.100914     -0.080077     -0.020837
   15 Atom        0.140488      0.106975     -0.247463
   16 Atom       -0.293246      0.142899      0.150347
   17 Atom        0.137039      0.099814     -0.236853
   18 Atom       -0.282386      0.134182      0.148204
   19 Atom       -0.040955     -0.085285      0.126240
   20 Atom        0.112774     -0.139974      0.027199
   21 Atom        0.144515      0.135610     -0.280125
   22 Atom       -0.046350     -0.092680      0.139030
   23 Atom        0.111296     -0.149948      0.038652
   24 Atom        0.129426      0.128473     -0.257899
   25 Atom       -0.222036      0.069401      0.152635
   26 Atom       -0.051853     -0.040191      0.092044
   27 Atom        0.136300      0.130993     -0.267293
   28 Atom       -0.218023      0.064885      0.153138
   29 Atom        0.140364     -0.225648      0.085284
   30 Atom        0.134254      0.148512     -0.282765
   31 Atom        0.133189     -0.214843      0.081654
   32 Atom        0.129362      0.148504     -0.277866
   33 Atom        0.102490     -0.118439      0.015949
   34 Atom        0.031940      0.149774     -0.181714
   35 Atom       -0.278341      0.142087      0.136254
 -----------------------------------------------------
 -----------------------------------------------------
    Center         ---- Electric Field Gradient ----
                       ( tensor representation )
                   ----       Eigenvalues       ----
 -----------------------------------------------------
    1 Atom       -0.161677      0.066658      0.095018
    2 Atom       -0.170911      0.068226      0.102685
    3 Atom       -0.074552      0.019462      0.055090
    4 Atom       -0.163608      0.067007      0.096601
    5 Atom       -0.166076      0.071315      0.094761
    6 Atom       -0.176432      0.072910      0.103521
    7 Atom       -0.166399      0.072059      0.094340
    8 Atom       -0.162180      0.040453      0.121727
    9 Atom       -0.368969      0.101289      0.267679
   10 Atom       -1.868462      0.471165      1.397297
   11 Atom       -0.345009     -0.099436      0.444445
   12 Atom       -1.115117     -0.554824      1.669942
   13 Atom       -0.115278      0.007038      0.108241
   14 Atom       -0.299375      0.144106      0.155269
   15 Atom       -0.301952      0.144811      0.157141
   16 Atom       -0.305023      0.146454      0.158569
   17 Atom       -0.291711      0.139185      0.152526
   18 Atom       -0.291904      0.139005      0.152899
   19 Atom       -0.294698      0.141578      0.153120
   20 Atom       -0.292631      0.140818      0.151813
   21 Atom       -0.299942      0.144398      0.155544
   22 Atom       -0.301852      0.144587      0.157265
   23 Atom       -0.301682      0.144437      0.157246
   24 Atom       -0.291541      0.139196      0.152345
   25 Atom       -0.293230      0.140045      0.153185
   26 Atom       -0.299762      0.144218      0.155544
   27 Atom       -0.302035      0.144560      0.157475
   28 Atom       -0.301888      0.144253      0.157634
   29 Atom       -0.291287      0.139833      0.151454
   30 Atom       -0.291018      0.139507      0.151510
   31 Atom       -0.289746      0.134488      0.155258
   32 Atom       -0.286777      0.132948      0.153829
   33 Atom       -0.302223      0.145457      0.156766
   34 Atom       -0.302387      0.145416      0.156972
   35 Atom       -0.303373      0.147914      0.155459
 -----------------------------------------------------

 Test job not archived.
 1|1|UNPC-NP-ALMACH|FOpt|RB3LYP|6-311++G(d,p)|C10H22O2P1(1+)|HERA|16-Au
 g-2018|0||# RB3LYP/6-311++G** Opt Test prop=EFG||C10PH22O2||1,1|C,-2.6
 293192683,-0.5042284503,-1.3773149277|C,-1.6172267847,0.640649183,-1.5
 265594733|P,0.1110097537,0.2894777135,-1.0299503183|C,0.7421599811,-1.
 1929633263,-1.8979784379|C,0.770758229,-1.0752780358,-3.4297681126|C,1
 .0985985617,1.7643848137,-1.4845491892|C,2.6118725689,1.649269392,-1.2
 50340097|C,0.2726082416,0.0673298436,0.7807320643|C,-0.2148538834,-1.2
 470742435,1.4018569585|O,0.1272999774,-1.1202790788,2.7771502171|C,-0.
 1569979365,-2.1075296885,3.7139154332|O,0.1771177459,-1.9024794541,4.8
 395598109|C,-0.863323359,-3.3482017353,3.2252128056|H,-3.5978037447,-0
 .1715617753,-1.7547024964|H,-2.3427044648,-1.3870945569,-1.952199608|H
 ,-2.7723668215,-0.7973789819,-0.3363377209|H,-1.9269312795,1.515205944
 9,-0.9453411911|H,-1.5621806433,0.9687582901,-2.5693402612|H,0.1169196
 229,-2.0345285774,-1.586215419|H,1.7434048327,-1.3849822956,-1.5002399
 331|H,1.1588264593,-2.003503881,-3.8523008969|H,1.420875501,-0.2661142
 148,-3.7675969462|H,-0.2247389389,-0.9171367921,-3.8494274577|H,0.6774
 110432,2.5996162514,-0.915383018|H,0.8818302743,1.9668490657,-2.537565
 9067|H,3.091398309,2.5767318629,-1.5677293607|H,3.0572177455,0.8372907
 332,-1.82856966|H,2.8588039257,1.5022463084,-0.1974347939|H,1.33547024
 66,0.1797281143,1.0130628689|H,-0.2424808475,0.9081842835,1.2554481273
 |H,-1.2938928364,-1.3721330022,1.2769024932|H,0.2927022132,-2.10646326
 86,0.9516636266|H,-1.843760493,-3.1064908957,2.8057937085|H,-0.2812217
 052,-3.8612635901,2.4549767572|H,-0.997470226,-4.017394956,4.071757354
 3||Version=EM64W-G09RevD.01|State=1-A|HF=-886.1009177|RMSD=4.364e-009|
 RMSF=3.609e-006|Dipole=-0.4316103,0.6708963,-3.6298113|Quadrupole=2.30
 8913,6.6297465,-8.9386595,3.6597143,-5.2524304,-6.3511038|PG=C01 [X(C1
 0H22O2P1)]||@


 Once you get people laughing, they're
 listening and you can tell them almost anything.
                                 -- Herb Gardner
 Job cpu time:       0 days  2 hours  9 minutes  6.0 seconds.
 File lengths (MBytes):  RWF=     90 Int=      0 D2E=      0 Chk=     15 Scr=      1
 Normal termination of Gaussian 09 at Thu Aug 16 02:33:04 2018.
