 Entering Link 1 = C:\G09W\l1.exe PID=      4708.
  
 Copyright (c) 1988,1990,1992,1993,1995,1998,2003,2009,2013,
            Gaussian, Inc.  All Rights Reserved.
  
 This is part of the Gaussian(R) 09 program.  It is based on
 the Gaussian(R) 03 system (copyright 2003, Gaussian, Inc.),
 the Gaussian(R) 98 system (copyright 1998, Gaussian, Inc.),
 the Gaussian(R) 94 system (copyright 1995, Gaussian, Inc.),
 the Gaussian 92(TM) system (copyright 1992, Gaussian, Inc.),
 the Gaussian 90(TM) system (copyright 1990, Gaussian, Inc.),
 the Gaussian 88(TM) system (copyright 1988, Gaussian, Inc.),
 the Gaussian 86(TM) system (copyright 1986, Carnegie Mellon
 University), and the Gaussian 82(TM) system (copyright 1983,
 Carnegie Mellon University). Gaussian is a federally registered
 trademark of Gaussian, Inc.
  
 This software contains proprietary and confidential information,
 including trade secrets, belonging to Gaussian, Inc.
  
 This software is provided under written license and may be
 used, copied, transmitted, or stored only in accord with that
 written license.
  
 The following legend is applicable only to US Government
 contracts under FAR:
  
                    RESTRICTED RIGHTS LEGEND
  
 Use, reproduction and disclosure by the US Government is
 subject to restrictions as set forth in subparagraphs (a)
 and (c) of the Commercial Computer Software - Restricted
 Rights clause in FAR 52.227-19.
  
 Gaussian, Inc.
 340 Quinnipiac St., Bldg. 40, Wallingford CT 06492
  
  
 ---------------------------------------------------------------
 Warning -- This program may not be used in any manner that
 competes with the business of Gaussian, Inc. or will provide
 assistance to any competitor of Gaussian, Inc.  The licensee
 of this program is prohibited from giving any competitor of
 Gaussian, Inc. access to this program.  By using this program,
 the user acknowledges that Gaussian, Inc. is engaged in the
 business of creating and licensing software in the field of
 computational chemistry and represents and warrants to the
 licensee that it is not a competitor of Gaussian, Inc. and that
 it will not use this program in any manner prohibited above.
 ---------------------------------------------------------------
  

 Cite this work as:
 Gaussian 09, Revision D.01,
 M. J. Frisch, G. W. Trucks, H. B. Schlegel, G. E. Scuseria, 
 M. A. Robb, J. R. Cheeseman, G. Scalmani, V. Barone, B. Mennucci, 
 G. A. Petersson, H. Nakatsuji, M. Caricato, X. Li, H. P. Hratchian, 
 A. F. Izmaylov, J. Bloino, G. Zheng, J. L. Sonnenberg, M. Hada, 
 M. Ehara, K. Toyota, R. Fukuda, J. Hasegawa, M. Ishida, T. Nakajima, 
 Y. Honda, O. Kitao, H. Nakai, T. Vreven, J. A. Montgomery, Jr., 
 J. E. Peralta, F. Ogliaro, M. Bearpark, J. J. Heyd, E. Brothers, 
 K. N. Kudin, V. N. Staroverov, T. Keith, R. Kobayashi, J. Normand, 
 K. Raghavachari, A. Rendell, J. C. Burant, S. S. Iyengar, J. Tomasi, 
 M. Cossi, N. Rega, J. M. Millam, M. Klene, J. E. Knox, J. B. Cross, 
 V. Bakken, C. Adamo, J. Jaramillo, R. Gomperts, R. E. Stratmann, 
 O. Yazyev, A. J. Austin, R. Cammi, C. Pomelli, J. W. Ochterski, 
 R. L. Martin, K. Morokuma, V. G. Zakrzewski, G. A. Voth, 
 P. Salvador, J. J. Dannenberg, S. Dapprich, A. D. Daniels, 
 O. Farkas, J. B. Foresman, J. V. Ortiz, J. Cioslowski, 
 and D. J. Fox, Gaussian, Inc., Wallingford CT, 2013.
 
 ******************************************
 Gaussian 09:  EM64W-G09RevD.01 13-Apr-2013
                05-Sep-2018 
 ******************************************
 %Chk=Anth_381.chk
 %Mem=128GB
 %NProcShared=20
 Will use up to   20 processors via shared memory.
 -------------------------------------
 # RB3LYP/6-311++G** Opt Test prop=EFG
 -------------------------------------
 1/14=-1,18=20,19=15,26=3,38=1/1,3;
 2/9=110,12=2,17=6,18=5,40=1/2;
 3/5=4,6=6,7=1111,11=2,16=1,25=1,30=1,71=1,74=-5,116=1/1,2,3;
 4//1;
 5/5=2,38=5/2;
 6/7=2,8=2,9=2,10=2,14=1,28=1/1,2;
 7//1,2,3,16;
 1/14=-1,18=20,19=15,26=3/3(2);
 2/9=110/2;
 99//99;
 2/9=110/2;
 3/5=4,6=6,7=1111,11=2,16=1,25=1,30=1,71=1,74=-5,116=1/1,2,3;
 4/5=5,16=3,69=1/1;
 5/5=2,38=5/2;
 7//1,2,3,16;
 1/14=-1,18=20,19=15,26=3/3(-5);
 2/9=110/2;
 6/7=2,8=2,9=2,10=2,14=1,19=2,28=1/1,2;
 99/9=1/99;
 ----------
 C29N2H33O3
 ----------
 Symbolic Z-matrix:
 Charge =  1 Multiplicity = 1
 C                    -3.34088   1.62946  -1.91892 
 C                    -3.34859   0.28929  -1.78413 
 C                    -2.1731   -0.36497  -1.76025 
 C                    -0.97199   0.23557  -1.88895 
 C                    -0.97353   1.58009  -1.98193 
 C                    -2.14687   2.23834  -2.00401 
 C                     0.21086  -0.43002  -1.86525 
 C                     1.37433   0.26047  -1.95275 
 C                     1.34046   1.60422  -2.01705 
 O                     0.17547   2.30671  -2.04326 
 C                     2.58761  -0.32421  -2.00819 
 C                     3.74817   0.35704  -2.02843 
 C                     3.7132    1.70686  -2.02322 
 C                     2.49988   2.28545  -2.03695 
 C                     0.21791  -1.78099  -1.76089 
 C                     0.77948  -2.51153  -0.76098 
 C                     1.38428  -1.98495   0.35562 
 C                    -0.37341  -2.43392  -2.78566 
 C                    -0.42267  -3.77074  -2.8526 
 C                     0.13572  -4.48951  -1.87312 
 C                     0.72456  -3.8583   -0.8476 
 C                     5.05031  -0.42167  -2.05796 
 O                     1.93306  -2.81534   1.30803 
 C                     2.58684  -2.2534    2.41515 
 C                     3.12176  -3.384     3.28926 
 N                     4.8035    2.43527  -2.0161 
 C                     4.85663   3.95459  -2.01184 
 C                     6.29989   4.47722  -1.9801 
 C                    -4.64058  -0.49345  -1.6461 
 N                    -4.4524    2.25112  -1.94415 
 C                    -4.68412   3.7125   -2.07392 
 C                    -4.55039   4.15869  -3.53689 
 C                    -6.09294   4.02363  -1.54305 
 O                     1.47168  -0.7868    0.53426 
 H                    -2.24366  -1.45236  -1.60641 
 H                    -2.08065   3.33447  -2.09241 
 H                     2.66973  -1.42181  -2.02978 
 H                     2.4027    3.38291  -2.06066 
 H                    -0.81317  -1.87895  -3.63442 
 H                    -0.90285  -4.27384  -3.70837 
 H                     0.10854  -5.5915   -1.91357 
 H                     1.15487  -4.51633  -0.07392 
 H                     4.90235  -1.52409  -2.08217 
 H                     5.643    -0.16899  -2.96642 
 H                     5.65565  -0.21095  -1.14705 
 H                     3.43503  -1.6199    2.06371 
 H                     1.86396  -1.63684   2.99918 
 H                     3.65067  -2.98082   4.18346 
 H                     2.29485  -4.0386    3.64901 
 H                     3.84232  -4.02039   2.7257 
 H                     5.71992   1.96825  -2.00823 
 H                     4.35982   4.34777  -2.93102 
 H                     4.32161   4.345    -1.11315 
 H                     6.32194   5.5915   -1.97694 
 H                     6.83424   4.12618  -1.0675 
 H                     6.87259   4.13061  -2.87086 
 H                    -5.20873  -0.15831  -0.74849 
 H                    -5.27631  -0.36144  -2.55123 
 H                    -4.48217  -1.5884   -1.52902 
 H                    -5.31092   1.65298  -1.86503 
 H                    -3.95645   4.25875  -1.42723 
 H                    -4.73203   5.25284  -3.63919 
 H                    -3.53505   3.9509   -3.94269 
 H                    -5.28471   3.62652  -4.18346 
 H                    -6.31128   5.11484  -1.59401 
 H                    -6.19834   3.70757  -0.47967 
 H                    -6.87259   3.49104  -2.13402 
 

 GradGradGradGradGradGradGradGradGradGradGradGradGradGradGradGradGradGrad
 Berny optimization.
 Initialization pass.
                           ----------------------------
                           !    Initial Parameters    !
                           ! (Angstroms and Degrees)  !
 --------------------------                            --------------------------
 ! Name  Definition              Value          Derivative Info.                !
 --------------------------------------------------------------------------------
 ! R1    R(1,2)                  1.347          estimate D2E/DX2                !
 ! R2    R(1,6)                  1.343          estimate D2E/DX2                !
 ! R3    R(1,30)                 1.2738         estimate D2E/DX2                !
 ! R4    R(2,3)                  1.3455         estimate D2E/DX2                !
 ! R5    R(2,29)                 1.5169         estimate D2E/DX2                !
 ! R6    R(3,4)                  1.349          estimate D2E/DX2                !
 ! R7    R(3,35)                 1.1005         estimate D2E/DX2                !
 ! R8    R(4,5)                  1.3477         estimate D2E/DX2                !
 ! R9    R(4,7)                  1.3575         estimate D2E/DX2                !
 ! R10   R(5,6)                  1.3456         estimate D2E/DX2                !
 ! R11   R(5,10)                 1.3609         estimate D2E/DX2                !
 ! R12   R(6,36)                 1.1017         estimate D2E/DX2                !
 ! R13   R(7,8)                  1.3558         estimate D2E/DX2                !
 ! R14   R(7,15)                 1.355          estimate D2E/DX2                !
 ! R15   R(8,9)                  1.3457         estimate D2E/DX2                !
 ! R16   R(8,11)                 1.3479         estimate D2E/DX2                !
 ! R17   R(9,10)                 1.3607         estimate D2E/DX2                !
 ! R18   R(9,14)                 1.3449         estimate D2E/DX2                !
 ! R19   R(11,12)                1.3459         estimate D2E/DX2                !
 ! R20   R(11,37)                1.1009         estimate D2E/DX2                !
 ! R21   R(12,13)                1.3503         estimate D2E/DX2                !
 ! R22   R(12,22)                1.5175         estimate D2E/DX2                !
 ! R23   R(13,14)                1.3443         estimate D2E/DX2                !
 ! R24   R(13,26)                1.3113         estimate D2E/DX2                !
 ! R25   R(14,38)                1.102          estimate D2E/DX2                !
 ! R26   R(15,16)                1.3597         estimate D2E/DX2                !
 ! R27   R(15,18)                1.3513         estimate D2E/DX2                !
 ! R28   R(16,17)                1.3747         estimate D2E/DX2                !
 ! R29   R(16,21)                1.3507         estimate D2E/DX2                !
 ! R30   R(17,23)                1.3776         estimate D2E/DX2                !
 ! R31   R(17,34)                1.2145         estimate D2E/DX2                !
 ! R32   R(18,19)                1.3394         estimate D2E/DX2                !
 ! R33   R(18,39)                1.1053         estimate D2E/DX2                !
 ! R34   R(19,20)                1.3371         estimate D2E/DX2                !
 ! R35   R(19,40)                1.1027         estimate D2E/DX2                !
 ! R36   R(20,21)                1.3405         estimate D2E/DX2                !
 ! R37   R(20,41)                1.1031         estimate D2E/DX2                !
 ! R38   R(21,42)                1.1031         estimate D2E/DX2                !
 ! R39   R(22,43)                1.1126         estimate D2E/DX2                !
 ! R40   R(22,44)                1.1137         estimate D2E/DX2                !
 ! R41   R(22,45)                1.1138         estimate D2E/DX2                !
 ! R42   R(23,24)                1.4032         estimate D2E/DX2                !
 ! R43   R(24,25)                1.5259         estimate D2E/DX2                !
 ! R44   R(24,46)                1.1155         estimate D2E/DX2                !
 ! R45   R(24,47)                1.1153         estimate D2E/DX2                !
 ! R46   R(25,48)                1.1144         estimate D2E/DX2                !
 ! R47   R(25,49)                1.1143         estimate D2E/DX2                !
 ! R48   R(25,50)                1.1144         estimate D2E/DX2                !
 ! R49   R(26,27)                1.5203         estimate D2E/DX2                !
 ! R50   R(26,51)                1.0286         estimate D2E/DX2                !
 ! R51   R(27,28)                1.5353         estimate D2E/DX2                !
 ! R52   R(27,52)                1.1164         estimate D2E/DX2                !
 ! R53   R(27,53)                1.1164         estimate D2E/DX2                !
 ! R54   R(28,54)                1.1145         estimate D2E/DX2                !
 ! R55   R(28,55)                1.1143         estimate D2E/DX2                !
 ! R56   R(28,56)                1.1143         estimate D2E/DX2                !
 ! R57   R(29,57)                1.1139         estimate D2E/DX2                !
 ! R58   R(29,58)                1.1139         estimate D2E/DX2                !
 ! R59   R(29,59)                1.1125         estimate D2E/DX2                !
 ! R60   R(30,31)                1.4853         estimate D2E/DX2                !
 ! R61   R(30,60)                1.0493         estimate D2E/DX2                !
 ! R62   R(31,32)                1.5353         estimate D2E/DX2                !
 ! R63   R(31,33)                1.5373         estimate D2E/DX2                !
 ! R64   R(31,61)                1.1163         estimate D2E/DX2                !
 ! R65   R(32,62)                1.1138         estimate D2E/DX2                !
 ! R66   R(32,63)                1.113          estimate D2E/DX2                !
 ! R67   R(32,64)                1.1138         estimate D2E/DX2                !
 ! R68   R(33,65)                1.114          estimate D2E/DX2                !
 ! R69   R(33,66)                1.1143         estimate D2E/DX2                !
 ! R70   R(33,67)                1.1139         estimate D2E/DX2                !
 ! A1    A(2,1,6)              117.5496         estimate D2E/DX2                !
 ! A2    A(2,1,30)             118.8533         estimate D2E/DX2                !
 ! A3    A(6,1,30)             123.5924         estimate D2E/DX2                !
 ! A4    A(1,2,3)              118.7236         estimate D2E/DX2                !
 ! A5    A(1,2,29)             121.8296         estimate D2E/DX2                !
 ! A6    A(3,2,29)             119.4441         estimate D2E/DX2                !
 ! A7    A(2,3,4)              124.034          estimate D2E/DX2                !
 ! A8    A(2,3,35)             115.2731         estimate D2E/DX2                !
 ! A9    A(4,3,35)             120.6836         estimate D2E/DX2                !
 ! A10   A(3,4,5)              116.7225         estimate D2E/DX2                !
 ! A11   A(3,4,7)              123.7714         estimate D2E/DX2                !
 ! A12   A(5,4,7)              119.4297         estimate D2E/DX2                !
 ! A13   A(4,5,6)              119.3515         estimate D2E/DX2                !
 ! A14   A(4,5,10)             122.3312         estimate D2E/DX2                !
 ! A15   A(6,5,10)             118.3147         estimate D2E/DX2                !
 ! A16   A(1,6,5)              123.5352         estimate D2E/DX2                !
 ! A17   A(1,6,36)             120.6382         estimate D2E/DX2                !
 ! A18   A(5,6,36)             115.8258         estimate D2E/DX2                !
 ! A19   A(4,7,8)              119.7972         estimate D2E/DX2                !
 ! A20   A(4,7,15)             119.6525         estimate D2E/DX2                !
 ! A21   A(8,7,15)             120.5495         estimate D2E/DX2                !
 ! A22   A(7,8,9)              119.3428         estimate D2E/DX2                !
 ! A23   A(7,8,11)             123.6541         estimate D2E/DX2                !
 ! A24   A(9,8,11)             116.9886         estimate D2E/DX2                !
 ! A25   A(8,9,10)             122.5483         estimate D2E/DX2                !
 ! A26   A(8,9,14)             118.9991         estimate D2E/DX2                !
 ! A27   A(10,9,14)            118.4455         estimate D2E/DX2                !
 ! A28   A(5,10,9)             116.5109         estimate D2E/DX2                !
 ! A29   A(8,11,12)            123.8635         estimate D2E/DX2                !
 ! A30   A(8,11,37)            120.0268         estimate D2E/DX2                !
 ! A31   A(12,11,37)           116.1071         estimate D2E/DX2                !
 ! A32   A(11,12,13)           118.9212         estimate D2E/DX2                !
 ! A33   A(11,12,22)           118.7164         estimate D2E/DX2                !
 ! A34   A(13,12,22)           122.3624         estimate D2E/DX2                !
 ! A35   A(12,13,14)           116.9749         estimate D2E/DX2                !
 ! A36   A(12,13,26)           122.2628         estimate D2E/DX2                !
 ! A37   A(14,13,26)           120.76           estimate D2E/DX2                !
 ! A38   A(9,14,13)            124.0516         estimate D2E/DX2                !
 ! A39   A(9,14,38)            115.3873         estimate D2E/DX2                !
 ! A40   A(13,14,38)           120.5603         estimate D2E/DX2                !
 ! A41   A(7,15,16)            126.4733         estimate D2E/DX2                !
 ! A42   A(7,15,18)            114.9005         estimate D2E/DX2                !
 ! A43   A(16,15,18)           118.6066         estimate D2E/DX2                !
 ! A44   A(15,16,17)           124.9734         estimate D2E/DX2                !
 ! A45   A(15,16,21)           118.1483         estimate D2E/DX2                !
 ! A46   A(17,16,21)           116.8672         estimate D2E/DX2                !
 ! A47   A(16,17,23)           120.3911         estimate D2E/DX2                !
 ! A48   A(16,17,34)           121.9383         estimate D2E/DX2                !
 ! A49   A(23,17,34)           117.6643         estimate D2E/DX2                !
 ! A50   A(15,18,19)           122.4273         estimate D2E/DX2                !
 ! A51   A(15,18,39)           120.9175         estimate D2E/DX2                !
 ! A52   A(19,18,39)           116.6224         estimate D2E/DX2                !
 ! A53   A(18,19,20)           118.9837         estimate D2E/DX2                !
 ! A54   A(18,19,40)           120.6738         estimate D2E/DX2                !
 ! A55   A(20,19,40)           120.3367         estimate D2E/DX2                !
 ! A56   A(19,20,21)           119.3897         estimate D2E/DX2                !
 ! A57   A(19,20,41)           119.9928         estimate D2E/DX2                !
 ! A58   A(21,20,41)           120.6176         estimate D2E/DX2                !
 ! A59   A(16,21,20)           122.4429         estimate D2E/DX2                !
 ! A60   A(16,21,42)           122.2743         estimate D2E/DX2                !
 ! A61   A(20,21,42)           115.281          estimate D2E/DX2                !
 ! A62   A(12,22,43)           113.2518         estimate D2E/DX2                !
 ! A63   A(12,22,44)           110.8604         estimate D2E/DX2                !
 ! A64   A(12,22,45)           110.6923         estimate D2E/DX2                !
 ! A65   A(43,22,44)           106.1304         estimate D2E/DX2                !
 ! A66   A(43,22,45)           106.113          estimate D2E/DX2                !
 ! A67   A(44,22,45)           109.5696         estimate D2E/DX2                !
 ! A68   A(17,23,24)           119.3202         estimate D2E/DX2                !
 ! A69   A(23,24,25)           108.5774         estimate D2E/DX2                !
 ! A70   A(23,24,46)           109.4594         estimate D2E/DX2                !
 ! A71   A(23,24,47)           109.4255         estimate D2E/DX2                !
 ! A72   A(25,24,46)           109.5553         estimate D2E/DX2                !
 ! A73   A(25,24,47)           109.6856         estimate D2E/DX2                !
 ! A74   A(46,24,47)           110.1132         estimate D2E/DX2                !
 ! A75   A(24,25,48)           110.975          estimate D2E/DX2                !
 ! A76   A(24,25,49)           111.1035         estimate D2E/DX2                !
 ! A77   A(24,25,50)           111.1068         estimate D2E/DX2                !
 ! A78   A(48,25,49)           107.7987         estimate D2E/DX2                !
 ! A79   A(48,25,50)           107.7891         estimate D2E/DX2                !
 ! A80   A(49,25,50)           107.9166         estimate D2E/DX2                !
 ! A81   A(13,26,27)           125.7495         estimate D2E/DX2                !
 ! A82   A(13,26,51)           119.2507         estimate D2E/DX2                !
 ! A83   A(27,26,51)           114.9992         estimate D2E/DX2                !
 ! A84   A(26,27,28)           111.9074         estimate D2E/DX2                !
 ! A85   A(26,27,52)           109.5191         estimate D2E/DX2                !
 ! A86   A(26,27,53)           109.572          estimate D2E/DX2                !
 ! A87   A(28,27,52)           108.3893         estimate D2E/DX2                !
 ! A88   A(28,27,53)           108.3503         estimate D2E/DX2                !
 ! A89   A(52,27,53)           109.0491         estimate D2E/DX2                !
 ! A90   A(27,28,54)           111.0387         estimate D2E/DX2                !
 ! A91   A(27,28,55)           111.1305         estimate D2E/DX2                !
 ! A92   A(27,28,56)           111.1458         estimate D2E/DX2                !
 ! A93   A(54,28,55)           107.6478         estimate D2E/DX2                !
 ! A94   A(54,28,56)           107.6441         estimate D2E/DX2                !
 ! A95   A(55,28,56)           108.0748         estimate D2E/DX2                !
 ! A96   A(2,29,57)            110.6404         estimate D2E/DX2                !
 ! A97   A(2,29,58)            110.5486         estimate D2E/DX2                !
 ! A98   A(2,29,59)            113.3387         estimate D2E/DX2                !
 ! A99   A(57,29,58)           109.1491         estimate D2E/DX2                !
 ! A100  A(57,29,59)           106.4946         estimate D2E/DX2                !
 ! A101  A(58,29,59)           106.4637         estimate D2E/DX2                !
 ! A102  A(1,30,31)            128.1729         estimate D2E/DX2                !
 ! A103  A(1,30,60)            115.7368         estimate D2E/DX2                !
 ! A104  A(31,30,60)           116.0902         estimate D2E/DX2                !
 ! A105  A(30,31,32)           110.8294         estimate D2E/DX2                !
 ! A106  A(30,31,33)           108.1749         estimate D2E/DX2                !
 ! A107  A(30,31,61)           109.2171         estimate D2E/DX2                !
 ! A108  A(32,31,33)           110.4907         estimate D2E/DX2                !
 ! A109  A(32,31,61)           110.6725         estimate D2E/DX2                !
 ! A110  A(33,31,61)           107.3547         estimate D2E/DX2                !
 ! A111  A(31,32,62)           111.0257         estimate D2E/DX2                !
 ! A112  A(31,32,63)           111.8778         estimate D2E/DX2                !
 ! A113  A(31,32,64)           110.9081         estimate D2E/DX2                !
 ! A114  A(62,32,63)           107.3784         estimate D2E/DX2                !
 ! A115  A(62,32,64)           107.9702         estimate D2E/DX2                !
 ! A116  A(63,32,64)           107.4937         estimate D2E/DX2                !
 ! A117  A(31,33,65)           111.2265         estimate D2E/DX2                !
 ! A118  A(31,33,66)           111.0265         estimate D2E/DX2                !
 ! A119  A(31,33,67)           111.189          estimate D2E/DX2                !
 ! A120  A(65,33,66)           107.6336         estimate D2E/DX2                !
 ! A121  A(65,33,67)           107.8721         estimate D2E/DX2                !
 ! A122  A(66,33,67)           107.7267         estimate D2E/DX2                !
 ! D1    D(6,1,2,3)             -0.8839         estimate D2E/DX2                !
 ! D2    D(6,1,2,29)           178.5175         estimate D2E/DX2                !
 ! D3    D(30,1,2,3)           179.88           estimate D2E/DX2                !
 ! D4    D(30,1,2,29)           -0.7185         estimate D2E/DX2                !
 ! D5    D(2,1,6,5)              1.0439         estimate D2E/DX2                !
 ! D6    D(2,1,6,36)          -178.6142         estimate D2E/DX2                !
 ! D7    D(30,1,6,5)          -179.7594         estimate D2E/DX2                !
 ! D8    D(30,1,6,36)            0.5826         estimate D2E/DX2                !
 ! D9    D(2,1,30,31)          179.5518         estimate D2E/DX2                !
 ! D10   D(2,1,30,60)           -0.5807         estimate D2E/DX2                !
 ! D11   D(6,1,30,31)            0.3649         estimate D2E/DX2                !
 ! D12   D(6,1,30,60)         -179.7676         estimate D2E/DX2                !
 ! D13   D(1,2,3,4)             -1.3109         estimate D2E/DX2                !
 ! D14   D(1,2,3,35)           177.5837         estimate D2E/DX2                !
 ! D15   D(29,2,3,4)           179.2731         estimate D2E/DX2                !
 ! D16   D(29,2,3,35)           -1.8324         estimate D2E/DX2                !
 ! D17   D(1,2,29,57)          -59.6538         estimate D2E/DX2                !
 ! D18   D(1,2,29,58)           61.38           estimate D2E/DX2                !
 ! D19   D(1,2,29,59)         -179.1892         estimate D2E/DX2                !
 ! D20   D(3,2,29,57)          119.7435         estimate D2E/DX2                !
 ! D21   D(3,2,29,58)         -119.2228         estimate D2E/DX2                !
 ! D22   D(3,2,29,59)            0.208          estimate D2E/DX2                !
 ! D23   D(2,3,4,5)              3.2658         estimate D2E/DX2                !
 ! D24   D(2,3,4,7)           -179.9394         estimate D2E/DX2                !
 ! D25   D(35,3,4,5)          -175.5718         estimate D2E/DX2                !
 ! D26   D(35,3,4,7)             1.223          estimate D2E/DX2                !
 ! D27   D(3,4,5,6)             -2.9961         estimate D2E/DX2                !
 ! D28   D(3,4,5,10)           176.4122         estimate D2E/DX2                !
 ! D29   D(7,4,5,6)           -179.9372         estimate D2E/DX2                !
 ! D30   D(7,4,5,10)            -0.5288         estimate D2E/DX2                !
 ! D31   D(3,4,7,8)           -177.5756         estimate D2E/DX2                !
 ! D32   D(3,4,7,15)             2.7513         estimate D2E/DX2                !
 ! D33   D(5,4,7,8)             -0.8627         estimate D2E/DX2                !
 ! D34   D(5,4,7,15)           179.4642         estimate D2E/DX2                !
 ! D35   D(4,5,6,1)              0.9751         estimate D2E/DX2                !
 ! D36   D(4,5,6,36)          -179.3517         estimate D2E/DX2                !
 ! D37   D(10,5,6,1)          -178.457          estimate D2E/DX2                !
 ! D38   D(10,5,6,36)            1.2161         estimate D2E/DX2                !
 ! D39   D(4,5,10,9)             0.5236         estimate D2E/DX2                !
 ! D40   D(6,5,10,9)           179.9379         estimate D2E/DX2                !
 ! D41   D(4,7,8,9)              2.215          estimate D2E/DX2                !
 ! D42   D(4,7,8,11)          -176.3515         estimate D2E/DX2                !
 ! D43   D(15,7,8,9)          -178.1149         estimate D2E/DX2                !
 ! D44   D(15,7,8,11)            3.3187         estimate D2E/DX2                !
 ! D45   D(4,7,15,16)         -119.3058         estimate D2E/DX2                !
 ! D46   D(4,7,15,18)           62.3399         estimate D2E/DX2                !
 ! D47   D(8,7,15,16)           61.0236         estimate D2E/DX2                !
 ! D48   D(8,7,15,18)         -117.3307         estimate D2E/DX2                !
 ! D49   D(7,8,9,10)            -2.2688         estimate D2E/DX2                !
 ! D50   D(7,8,9,14)           176.7439         estimate D2E/DX2                !
 ! D51   D(11,8,9,10)          176.3921         estimate D2E/DX2                !
 ! D52   D(11,8,9,14)           -4.5952         estimate D2E/DX2                !
 ! D53   D(7,8,11,12)         -176.5787         estimate D2E/DX2                !
 ! D54   D(7,8,11,37)            2.8136         estimate D2E/DX2                !
 ! D55   D(9,8,11,12)            4.8237         estimate D2E/DX2                !
 ! D56   D(9,8,11,37)         -175.784          estimate D2E/DX2                !
 ! D57   D(8,9,10,5)             0.8941         estimate D2E/DX2                !
 ! D58   D(14,9,10,5)         -178.1237         estimate D2E/DX2                !
 ! D59   D(8,9,14,13)            1.3819         estimate D2E/DX2                !
 ! D60   D(8,9,14,38)         -178.3013         estimate D2E/DX2                !
 ! D61   D(10,9,14,13)        -179.5646         estimate D2E/DX2                !
 ! D62   D(10,9,14,38)           0.7522         estimate D2E/DX2                !
 ! D63   D(8,11,12,13)          -1.5315         estimate D2E/DX2                !
 ! D64   D(8,11,12,22)         178.5392         estimate D2E/DX2                !
 ! D65   D(37,11,12,13)        179.0544         estimate D2E/DX2                !
 ! D66   D(37,11,12,22)         -0.8749         estimate D2E/DX2                !
 ! D67   D(11,12,13,14)         -1.8758         estimate D2E/DX2                !
 ! D68   D(11,12,13,26)        178.6649         estimate D2E/DX2                !
 ! D69   D(22,12,13,14)        178.0507         estimate D2E/DX2                !
 ! D70   D(22,12,13,26)         -1.4086         estimate D2E/DX2                !
 ! D71   D(11,12,22,43)          1.2496         estimate D2E/DX2                !
 ! D72   D(11,12,22,44)        120.4149         estimate D2E/DX2                !
 ! D73   D(11,12,22,45)       -117.7753         estimate D2E/DX2                !
 ! D74   D(13,12,22,43)       -178.677          estimate D2E/DX2                !
 ! D75   D(13,12,22,44)        -59.5118         estimate D2E/DX2                !
 ! D76   D(13,12,22,45)         62.2981         estimate D2E/DX2                !
 ! D77   D(12,13,14,9)           1.9647         estimate D2E/DX2                !
 ! D78   D(12,13,14,38)       -178.3676         estimate D2E/DX2                !
 ! D79   D(26,13,14,9)        -178.5673         estimate D2E/DX2                !
 ! D80   D(26,13,14,38)          1.1003         estimate D2E/DX2                !
 ! D81   D(12,13,26,27)        179.9084         estimate D2E/DX2                !
 ! D82   D(12,13,26,51)         -0.3929         estimate D2E/DX2                !
 ! D83   D(14,13,26,27)          0.4692         estimate D2E/DX2                !
 ! D84   D(14,13,26,51)       -179.8322         estimate D2E/DX2                !
 ! D85   D(7,15,16,17)           3.3546         estimate D2E/DX2                !
 ! D86   D(7,15,16,21)        -177.8987         estimate D2E/DX2                !
 ! D87   D(18,15,16,17)       -178.3457         estimate D2E/DX2                !
 ! D88   D(18,15,16,21)          0.401          estimate D2E/DX2                !
 ! D89   D(7,15,18,19)         178.3193         estimate D2E/DX2                !
 ! D90   D(7,15,18,39)           0.4701         estimate D2E/DX2                !
 ! D91   D(16,15,18,19)         -0.1734         estimate D2E/DX2                !
 ! D92   D(16,15,18,39)       -178.0225         estimate D2E/DX2                !
 ! D93   D(15,16,17,23)       -179.508          estimate D2E/DX2                !
 ! D94   D(15,16,17,34)         -0.4466         estimate D2E/DX2                !
 ! D95   D(21,16,17,23)          1.7307         estimate D2E/DX2                !
 ! D96   D(21,16,17,34)       -179.2078         estimate D2E/DX2                !
 ! D97   D(15,16,21,20)         -0.2966         estimate D2E/DX2                !
 ! D98   D(15,16,21,42)       -179.7968         estimate D2E/DX2                !
 ! D99   D(17,16,21,20)        178.5522         estimate D2E/DX2                !
 ! D100  D(17,16,21,42)         -0.948          estimate D2E/DX2                !
 ! D101  D(16,17,23,24)        177.7405         estimate D2E/DX2                !
 ! D102  D(34,17,23,24)         -1.3602         estimate D2E/DX2                !
 ! D103  D(15,18,19,20)         -0.1802         estimate D2E/DX2                !
 ! D104  D(15,18,19,40)       -179.3038         estimate D2E/DX2                !
 ! D105  D(39,18,19,20)        177.7558         estimate D2E/DX2                !
 ! D106  D(39,18,19,40)         -1.3678         estimate D2E/DX2                !
 ! D107  D(18,19,20,21)          0.2925         estimate D2E/DX2                !
 ! D108  D(18,19,20,41)       -179.7432         estimate D2E/DX2                !
 ! D109  D(40,19,20,21)        179.4192         estimate D2E/DX2                !
 ! D110  D(40,19,20,41)         -0.6166         estimate D2E/DX2                !
 ! D111  D(19,20,21,16)         -0.0553         estimate D2E/DX2                !
 ! D112  D(19,20,21,42)        179.4773         estimate D2E/DX2                !
 ! D113  D(41,20,21,16)        179.9806         estimate D2E/DX2                !
 ! D114  D(41,20,21,42)         -0.4867         estimate D2E/DX2                !
 ! D115  D(17,23,24,25)       -178.8006         estimate D2E/DX2                !
 ! D116  D(17,23,24,46)        -59.2456         estimate D2E/DX2                !
 ! D117  D(17,23,24,47)         61.5064         estimate D2E/DX2                !
 ! D118  D(23,24,25,48)        179.9878         estimate D2E/DX2                !
 ! D119  D(23,24,25,49)        -60.0878         estimate D2E/DX2                !
 ! D120  D(23,24,25,50)         60.0734         estimate D2E/DX2                !
 ! D121  D(46,24,25,48)         60.4928         estimate D2E/DX2                !
 ! D122  D(46,24,25,49)       -179.5828         estimate D2E/DX2                !
 ! D123  D(46,24,25,50)        -59.4216         estimate D2E/DX2                !
 ! D124  D(47,24,25,48)        -60.4817         estimate D2E/DX2                !
 ! D125  D(47,24,25,49)         59.4427         estimate D2E/DX2                !
 ! D126  D(47,24,25,50)        179.6039         estimate D2E/DX2                !
 ! D127  D(13,26,27,28)        179.0557         estimate D2E/DX2                !
 ! D128  D(13,26,27,52)        -60.7246         estimate D2E/DX2                !
 ! D129  D(13,26,27,53)         58.8494         estimate D2E/DX2                !
 ! D130  D(51,26,27,28)         -0.6542         estimate D2E/DX2                !
 ! D131  D(51,26,27,52)        119.5655         estimate D2E/DX2                !
 ! D132  D(51,26,27,53)       -120.8605         estimate D2E/DX2                !
 ! D133  D(26,27,28,54)       -179.9778         estimate D2E/DX2                !
 ! D134  D(26,27,28,55)        -60.1835         estimate D2E/DX2                !
 ! D135  D(26,27,28,56)         60.2223         estimate D2E/DX2                !
 ! D136  D(52,27,28,54)         59.145          estimate D2E/DX2                !
 ! D137  D(52,27,28,55)        178.9393         estimate D2E/DX2                !
 ! D138  D(52,27,28,56)        -60.6549         estimate D2E/DX2                !
 ! D139  D(53,27,28,54)        -59.0607         estimate D2E/DX2                !
 ! D140  D(53,27,28,55)         60.7336         estimate D2E/DX2                !
 ! D141  D(53,27,28,56)       -178.8606         estimate D2E/DX2                !
 ! D142  D(1,30,31,32)          79.4073         estimate D2E/DX2                !
 ! D143  D(1,30,31,33)        -159.3207         estimate D2E/DX2                !
 ! D144  D(1,30,31,61)         -42.775          estimate D2E/DX2                !
 ! D145  D(60,30,31,32)       -100.4598         estimate D2E/DX2                !
 ! D146  D(60,30,31,33)         20.8122         estimate D2E/DX2                !
 ! D147  D(60,30,31,61)        137.3578         estimate D2E/DX2                !
 ! D148  D(30,31,32,62)        179.5217         estimate D2E/DX2                !
 ! D149  D(30,31,32,63)        -60.5335         estimate D2E/DX2                !
 ! D150  D(30,31,32,64)         59.4774         estimate D2E/DX2                !
 ! D151  D(33,31,32,62)         59.6245         estimate D2E/DX2                !
 ! D152  D(33,31,32,63)        179.5693         estimate D2E/DX2                !
 ! D153  D(33,31,32,64)        -60.4198         estimate D2E/DX2                !
 ! D154  D(61,31,32,62)        -59.1493         estimate D2E/DX2                !
 ! D155  D(61,31,32,63)         60.7955         estimate D2E/DX2                !
 ! D156  D(61,31,32,64)       -179.1936         estimate D2E/DX2                !
 ! D157  D(30,31,33,65)        178.6195         estimate D2E/DX2                !
 ! D158  D(30,31,33,66)         58.7873         estimate D2E/DX2                !
 ! D159  D(30,31,33,67)        -61.1374         estimate D2E/DX2                !
 ! D160  D(32,31,33,65)        -59.899          estimate D2E/DX2                !
 ! D161  D(32,31,33,66)       -179.7312         estimate D2E/DX2                !
 ! D162  D(32,31,33,67)         60.3441         estimate D2E/DX2                !
 ! D163  D(61,31,33,65)         60.8735         estimate D2E/DX2                !
 ! D164  D(61,31,33,66)        -58.9587         estimate D2E/DX2                !
 ! D165  D(61,31,33,67)       -178.8834         estimate D2E/DX2                !
 --------------------------------------------------------------------------------
 Trust Radius=3.00D-01 FncErr=1.00D-07 GrdErr=1.00D-06
 Number of steps in this run=    367 maximum allowed number of steps=    402.
 GradGradGradGradGradGradGradGradGradGradGradGradGradGradGradGradGradGrad

 Stoichiometry    C29H33N2O3(1+)
 Framework group  C1[X(C29H33N2O3)]
 Deg. of freedom   195
 Full point group                 C1      NOp   1
 Largest Abelian subgroup         C1      NOp   1
 Largest concise Abelian subgroup C1      NOp   1
                         Standard orientation:                         
 ---------------------------------------------------------------------
 Center     Atomic      Atomic             Coordinates (Angstroms)
 Number     Number       Type             X           Y           Z
 ---------------------------------------------------------------------
      1          6           0       -3.935689   -0.019692    0.252494
      2          6           0       -3.482260   -1.252780   -0.044446
      3          6           0       -2.177173   -1.410091   -0.331518
      4          6           0       -1.284710   -0.399087   -0.367071
      5          6           0       -1.739997    0.823381   -0.028464
      6          6           0       -3.044042    0.984554    0.261384
      7          6           0        0.030821   -0.563744   -0.658545
      8          6           0        0.867277    0.502659   -0.623405
      9          6           0        0.387865    1.704943   -0.255142
     10          8           0       -0.923580    1.909716    0.044109
     11          6           0        2.169405    0.442316   -0.966606
     12          6           0        3.019205    1.481562   -0.870618
     13          6           0        2.550298    2.670403   -0.434694
     14          6           0        1.236691    2.743665   -0.158739
     15          6           0        0.495511   -1.792963   -0.988929
     16          6           0        1.446300   -2.502977   -0.325038
     17          6           0        2.052257   -2.107604    0.843876
     18          6           0       -0.039199   -2.320359   -2.112351
     19          6           0        0.335526   -3.512201   -2.595132
     20          6           0        1.275590   -4.207484   -1.946529
     21          6           0        1.815183   -3.700554   -0.829070
     22          6           0        4.471531    1.274076   -1.258601
     23          8           0        3.014348   -2.898720    1.432358
     24          6           0        3.652367   -2.451312    2.599267
     25          6           0        4.683738   -3.494313    3.019822
     26          7           0        3.325068    3.718597   -0.291802
     27          6           0        2.882604    5.091166    0.189302
     28          6           0        4.055663    6.079175    0.259515
     29          6           0       -4.397998   -2.462067   -0.049940
     30          7           0       -5.171238    0.132438    0.522392
     31          6           0       -5.884668    1.384197    0.883321
     32          6           0       -6.189357    2.219294   -0.368490
     33          6           0       -7.186916    1.002666    1.605799
     34          8           0        1.779476   -1.054980    1.384863
     35          1           0       -1.860183   -2.446045   -0.524852
     36          1           0       -3.355186    2.009341    0.519675
     37          1           0        2.597026   -0.500050   -1.342139
     38          1           0        0.786374    3.692392    0.175268
     39          1           0       -0.790959   -1.762146   -2.699747
     40          1           0       -0.112049   -3.910047   -3.521101
     41          1           0        1.599782   -5.188939   -2.331755
     42          1           0        2.577030   -4.334164   -0.344431
     43          1           0        4.687179    0.243520   -1.618128
     44          1           0        4.762106    1.958266   -2.087972
     45          1           0        5.140464    1.442703   -0.384136
     46          1           0        4.164156   -1.481566    2.394477
     47          1           0        2.896534   -2.322525    3.409162
     48          1           0        5.216280   -3.177806    3.946169
     49          1           0        4.200104   -4.477238    3.223926
     50          1           0        5.447822   -3.647054    2.223185
     51          1           0        4.326487    3.637177   -0.512113
     52          1           0        2.116808    5.502883   -0.510933
     53          1           0        2.435080    5.003934    1.208334
     54          1           0        3.715508    7.079597    0.613871
     55          1           0        4.841294    5.720561    0.963641
     56          1           0        4.525423    6.217185   -0.741415
     57          1           0       -4.858494   -2.610453    0.953427
     58          1           0       -5.205048   -2.337932   -0.807639
     59          1           0       -3.873687   -3.410829   -0.300299
     60          1           0       -5.756893   -0.737318    0.482104
     61          1           0       -5.262500    1.966977    1.604000
     62          1           0       -6.732058    3.154867   -0.102407
     63          1           0       -5.260663    2.515074   -0.905879
     64          1           0       -6.822230    1.646584   -1.084007
     65          1           0       -7.752678    1.908507    1.922627
     66          1           0       -6.975707    0.400024    2.519029
     67          1           0       -7.850828    0.398167    0.946589
 ---------------------------------------------------------------------
 Rotational constants (GHZ):      0.1368148      0.0874319      0.0621901
 Standard basis: 6-311++G(d,p) (5D, 7F)
 There are  1013 symmetry adapted cartesian basis functions of A   symmetry.
 There are   979 symmetry adapted basis functions of A   symmetry.
   979 basis functions,  1521 primitive gaussians,  1013 cartesian basis functions
   122 alpha electrons      122 beta electrons
       nuclear repulsion energy      3591.5294651161 Hartrees.
 NAtoms=   67 NActive=   67 NUniq=   67 SFac= 1.00D+00 NAtFMM=   60 NAOKFM=T Big=T
 Integral buffers will be    131072 words long.
 Raffenetti 2 integral format.
 Two-electron integral symmetry is turned on.
 One-electron integrals computed using PRISM.
 NBasis=   979 RedAO= T EigKep=  1.18D-06  NBF=   979
 NBsUse=   961 1.00D-06 EigRej=  7.77D-07 NBFU=   961
 ExpMin= 3.60D-02 ExpMax= 8.59D+03 ExpMxC= 1.30D+03 IAcc=3 IRadAn=         5 AccDes= 0.00D+00
 Harris functional with IExCor=  402 and IRadAn=       5 diagonalized for initial guess.
 HarFok:  IExCor=  402 AccDes= 0.00D+00 IRadAn=         5 IDoV= 1 UseB2=F ITyADJ=14
 ICtDFT=  3500011 ScaDFX=  1.000000  1.000000  1.000000  1.000000
 FoFCou: FMM=F IPFlag=           0 FMFlag=      100000 FMFlg1=        2001
         NFxFlg=           0 DoJE=T BraDBF=F KetDBF=T FulRan=T
         wScrn=  0.000000 ICntrl=     500 IOpCl=  0 I1Cent=   200000004 NGrid=           0
         NMat0=    1 NMatS0=      1 NMatT0=    0 NMatD0=    1 NMtDS0=    0 NMtDT0=    0
 Petite list used in FoFCou.
 Requested convergence on RMS density matrix=1.00D-08 within 128 cycles.
 Requested convergence on MAX density matrix=1.00D-06.
 Requested convergence on             energy=1.00D-06.
 No special actions if energy rises.
 SCF Done:  E(RB3LYP) =  -1460.24994486     A.U. after   17 cycles
            NFock= 17  Conv=0.65D-08     -V/T= 2.0023

 **********************************************************************

            Population analysis using the SCF density.

 **********************************************************************

 Orbital symmetries:
       Occupied  (A) (A) (A) (A) (A) (A) (A) (A) (A) (A) (A) (A)
                 (A) (A) (A) (A) (A) (A) (A) (A) (A) (A) (A) (A)
                 (A) (A) (A) (A) (A) (A) (A) (A) (A) (A) (A) (A)
                 (A) (A) (A) (A) (A) (A) (A) (A) (A) (A) (A) (A)
                 (A) (A) (A) (A) (A) (A) (A) (A) (A) (A) (A) (A)
                 (A) (A) (A) (A) (A) (A) (A) (A) (A) (A) (A) (A)
                 (A) (A) (A) (A) (A) (A) (A) (A) (A) (A) (A) (A)
                 (A) (A) (A) (A) (A) (A) (A) (A) (A) (A) (A) (A)
                 (A) (A) (A) (A) (A) (A) (A) (A) (A) (A) (A) (A)
                 (A) (A) (A) (A) (A) (A) (A) (A) (A) (A) (A) (A)
                 (A) (A)
       Virtual   (A) (A) (A) (A) (A) (A) (A) (A) (A) (A) (A) (A)
                 (A) (A) (A) (A) (A) (A) (A) (A) (A) (A) (A) (A)
                 (A) (A) (A) (A) (A) (A) (A) (A) (A) (A) (A) (A)
                 (A) (A) (A) (A) (A) (A) (A) (A) (A) (A) (A) (A)
                 (A) (A) (A) (A) (A) (A) (A) (A) (A) (A) (A) (A)
                 (A) (A) (A) (A) (A) (A) (A) (A) (A) (A) (A) (A)
                 (A) (A) (A) (A) (A) (A) (A) (A) (A) (A) (A) (A)
                 (A) (A) (A) (A) (A) (A) (A) (A) (A) (A) (A) (A)
                 (A) (A) (A) (A) (A) (A) (A) (A) (A) (A) (A) (A)
                 (A) (A) (A) (A) (A) (A) (A) (A) (A) (A) (A) (A)
                 (A) (A) (A) (A) (A) (A) (A) (A) (A) (A) (A) (A)
                 (A) (A) (A) (A) (A) (A) (A) (A) (A) (A) (A) (A)
                 (A) (A) (A) (A) (A) (A) (A) (A) (A) (A) (A) (A)
                 (A) (A) (A) (A) (A) (A) (A) (A) (A) (A) (A) (A)
                 (A) (A) (A) (A) (A) (A) (A) (A) (A) (A) (A) (A)
                 (A) (A) (A) (A) (A) (A) (A) (A) (A) (A) (A) (A)
                 (A) (A) (A) (A) (A) (A) (A) (A) (A) (A) (A) (A)
                 (A) (A) (A) (A) (A) (A) (A) (A) (A) (A) (A) (A)
                 (A) (A) (A) (A) (A) (A) (A) (A) (A) (A) (A) (A)
                 (A) (A) (A) (A) (A) (A) (A) (A) (A) (A) (A) (A)
                 (A) (A) (A) (A) (A) (A) (A) (A) (A) (A) (A) (A)
                 (A) (A) (A) (A) (A) (A) (A) (A) (A) (A) (A) (A)
                 (A) (A) (A) (A) (A) (A) (A) (A) (A) (A) (A) (A)
                 (A) (A) (A) (A) (A) (A) (A) (A) (A) (A) (A) (A)
                 (A) (A) (A) (A) (A) (A) (A) (A) (A) (A) (A) (A)
                 (A) (A) (A) (A) (A) (A) (A) (A) (A) (A) (A) (A)
                 (A) (A) (A) (A) (A) (A) (A) (A) (A) (A) (A) (A)
                 (A) (A) (A) (A) (A) (A) (A) (A) (A) (A) (A) (A)
                 (A) (A) (A) (A) (A) (A) (A) (A) (A) (A) (A) (A)
                 (A) (A) (A) (A) (A) (A) (A) (A) (A) (A) (A) (A)
                 (A) (A) (A) (A) (A) (A) (A) (A) (A) (A) (A) (A)
                 (A) (A) (A) (A) (A) (A) (A) (A) (A) (A) (A) (A)
                 (A) (A) (A) (A) (A) (A) (A) (A) (A) (A) (A) (A)
                 (A) (A) (A) (A) (A) (A) (A) (A) (A) (A) (A) (A)
                 (A) (A) (A) (A) (A) (A) (A) (A) (A) (A) (A) (A)
                 (A) (A) (A) (A) (A) (A) (A) (A) (A) (A) (A) (A)
                 (A) (A) (A) (A) (A) (A) (A) (A) (A) (A) (A) (A)
                 (A) (A) (A) (A) (A) (A) (A) (A) (A) (A) (A) (A)
                 (A) (A) (A) (A) (A) (A) (A) (A) (A) (A) (A) (A)
                 (A) (A) (A) (A) (A) (A) (A) (A) (A) (A) (A) (A)
                 (A) (A) (A) (A) (A) (A) (A) (A) (A) (A) (A) (A)
                 (A) (A) (A) (A) (A) (A) (A) (A) (A) (A) (A) (A)
                 (A) (A) (A) (A) (A) (A) (A) (A) (A) (A) (A) (A)
                 (A) (A) (A) (A) (A) (A) (A) (A) (A) (A) (A) (A)
                 (A) (A) (A) (A) (A) (A) (A) (A) (A) (A) (A) (A)
                 (A) (A) (A) (A) (A) (A) (A) (A) (A) (A) (A) (A)
                 (A) (A) (A) (A) (A) (A) (A) (A) (A) (A) (A) (A)
                 (A) (A) (A) (A) (A) (A) (A) (A) (A) (A) (A) (A)
                 (A) (A) (A) (A) (A) (A) (A) (A) (A) (A) (A) (A)
                 (A) (A) (A) (A) (A) (A) (A) (A) (A) (A) (A) (A)
                 (A) (A) (A) (A) (A) (A) (A) (A) (A) (A) (A) (A)
                 (A) (A) (A) (A) (A) (A) (A) (A) (A) (A) (A) (A)
                 (A) (A) (A) (A) (A) (A) (A) (A) (A) (A) (A) (A)
                 (A) (A) (A) (A) (A) (A) (A) (A) (A) (A) (A) (A)
                 (A) (A) (A) (A) (A) (A) (A) (A) (A) (A) (A) (A)
                 (A) (A) (A) (A) (A) (A) (A) (A) (A) (A) (A) (A)
                 (A) (A) (A) (A) (A) (A) (A) (A) (A) (A) (A) (A)
                 (A) (A) (A) (A) (A) (A) (A) (A) (A) (A) (A) (A)
                 (A) (A) (A) (A) (A) (A) (A) (A) (A) (A) (A) (A)
                 (A) (A) (A) (A) (A) (A) (A) (A) (A) (A) (A) (A)
                 (A) (A) (A) (A) (A) (A) (A) (A) (A) (A) (A) (A)
                 (A) (A) (A) (A) (A) (A) (A) (A) (A) (A) (A) (A)
                 (A) (A) (A) (A) (A) (A) (A) (A) (A) (A) (A) (A)
                 (A) (A) (A) (A) (A) (A) (A) (A) (A) (A) (A) (A)
                 (A) (A) (A) (A) (A) (A) (A) (A) (A) (A) (A) (A)
                 (A) (A) (A) (A) (A) (A) (A) (A) (A) (A) (A) (A)
                 (A) (A) (A) (A) (A) (A) (A) (A) (A) (A) (A) (A)
                 (A) (A) (A) (A) (A) (A) (A) (A) (A) (A) (A) (A)
                 (A) (A) (A) (A) (A) (A) (A) (A) (A) (A) (A) (A)
                 (A) (A) (A) (A) (A) (A) (A) (A) (A) (A) (A)
 The electronic state is 1-A.
 Alpha  occ. eigenvalues --  -19.30296 -19.24805 -19.19571 -14.44975 -14.44688
 Alpha  occ. eigenvalues --  -10.38959 -10.35082 -10.34536 -10.32363 -10.32155
 Alpha  occ. eigenvalues --  -10.32041 -10.31827 -10.31141 -10.30876 -10.29088
 Alpha  occ. eigenvalues --  -10.28799 -10.28130 -10.28094 -10.28093 -10.28056
 Alpha  occ. eigenvalues --  -10.27893 -10.27786 -10.27719 -10.27629 -10.27518
 Alpha  occ. eigenvalues --  -10.27396 -10.27336 -10.27153 -10.26716 -10.26667
 Alpha  occ. eigenvalues --  -10.26604 -10.26214 -10.26181 -10.24409  -1.22980
 Alpha  occ. eigenvalues --   -1.19748  -1.11011  -1.09099  -1.06936  -1.03430
 Alpha  occ. eigenvalues --   -1.00042  -0.99566  -0.95014  -0.91521  -0.90826
 Alpha  occ. eigenvalues --   -0.89545  -0.89081  -0.87628  -0.86626  -0.84764
 Alpha  occ. eigenvalues --   -0.84326  -0.82073  -0.80195  -0.79269  -0.78315
 Alpha  occ. eigenvalues --   -0.76799  -0.75543  -0.74547  -0.74229  -0.73286
 Alpha  occ. eigenvalues --   -0.71804  -0.70455  -0.70124  -0.68552  -0.68206
 Alpha  occ. eigenvalues --   -0.65848  -0.64579  -0.64176  -0.63811  -0.62022
 Alpha  occ. eigenvalues --   -0.60311  -0.60066  -0.59615  -0.58727  -0.58231
 Alpha  occ. eigenvalues --   -0.57641  -0.57300  -0.56847  -0.56222  -0.55837
 Alpha  occ. eigenvalues --   -0.55458  -0.55070  -0.54346  -0.54018  -0.53866
 Alpha  occ. eigenvalues --   -0.53432  -0.53094  -0.53001  -0.51833  -0.51186
 Alpha  occ. eigenvalues --   -0.50577  -0.49735  -0.49448  -0.49300  -0.48858
 Alpha  occ. eigenvalues --   -0.48571  -0.48519  -0.48434  -0.47847  -0.47702
 Alpha  occ. eigenvalues --   -0.47480  -0.46987  -0.46823  -0.46522  -0.46427
 Alpha  occ. eigenvalues --   -0.46146  -0.45868  -0.45467  -0.44431  -0.44267
 Alpha  occ. eigenvalues --   -0.44130  -0.44056  -0.42725  -0.42227  -0.38970
 Alpha  occ. eigenvalues --   -0.38131  -0.37867  -0.37172  -0.36718  -0.34928
 Alpha  occ. eigenvalues --   -0.33688  -0.30963
 Alpha virt. eigenvalues --   -0.20123  -0.15681  -0.12565  -0.10762  -0.09908
 Alpha virt. eigenvalues --   -0.09751  -0.09276  -0.09209  -0.08554  -0.08144
 Alpha virt. eigenvalues --   -0.07630  -0.07119  -0.06796  -0.06458  -0.06110
 Alpha virt. eigenvalues --   -0.05988  -0.05683  -0.05226  -0.05188  -0.05066
 Alpha virt. eigenvalues --   -0.04540  -0.04262  -0.04056  -0.03955  -0.03841
 Alpha virt. eigenvalues --   -0.03611  -0.03254  -0.03193  -0.02997  -0.02914
 Alpha virt. eigenvalues --   -0.02672  -0.02457  -0.02198  -0.02017  -0.01852
 Alpha virt. eigenvalues --   -0.01523  -0.01451  -0.01089  -0.00744  -0.00589
 Alpha virt. eigenvalues --   -0.00324  -0.00201  -0.00077   0.00348   0.00578
 Alpha virt. eigenvalues --    0.00703   0.01058   0.01171   0.01444   0.01549
 Alpha virt. eigenvalues --    0.01795   0.01956   0.02258   0.02441   0.02684
 Alpha virt. eigenvalues --    0.02940   0.03088   0.03245   0.03500   0.03721
 Alpha virt. eigenvalues --    0.03987   0.04226   0.04450   0.04583   0.04670
 Alpha virt. eigenvalues --    0.04836   0.05014   0.05119   0.05397   0.05484
 Alpha virt. eigenvalues --    0.05694   0.05836   0.06049   0.06142   0.06240
 Alpha virt. eigenvalues --    0.06315   0.06543   0.06571   0.06593   0.06712
 Alpha virt. eigenvalues --    0.06956   0.07177   0.07356   0.07405   0.07528
 Alpha virt. eigenvalues --    0.07656   0.08024   0.08106   0.08201   0.08391
 Alpha virt. eigenvalues --    0.08487   0.08649   0.08820   0.09001   0.09034
 Alpha virt. eigenvalues --    0.09215   0.09241   0.09499   0.09550   0.09627
 Alpha virt. eigenvalues --    0.09862   0.10010   0.10180   0.10243   0.10396
 Alpha virt. eigenvalues --    0.10438   0.10511   0.10860   0.11066   0.11245
 Alpha virt. eigenvalues --    0.11328   0.11465   0.11590   0.11661   0.12003
 Alpha virt. eigenvalues --    0.12318   0.12498   0.12674   0.12889   0.13077
 Alpha virt. eigenvalues --    0.13107   0.13302   0.13541   0.13650   0.13843
 Alpha virt. eigenvalues --    0.14125   0.14269   0.14447   0.14486   0.14642
 Alpha virt. eigenvalues --    0.14988   0.15185   0.15380   0.15645   0.15720
 Alpha virt. eigenvalues --    0.15924   0.16245   0.16336   0.16737   0.16813
 Alpha virt. eigenvalues --    0.17145   0.17256   0.17442   0.18107   0.18330
 Alpha virt. eigenvalues --    0.18562   0.18695   0.18898   0.19245   0.19393
 Alpha virt. eigenvalues --    0.19501   0.19776   0.20034   0.20191   0.20315
 Alpha virt. eigenvalues --    0.20564   0.20853   0.21030   0.21174   0.21528
 Alpha virt. eigenvalues --    0.21606   0.21888   0.22017   0.22193   0.22374
 Alpha virt. eigenvalues --    0.22541   0.22699   0.23020   0.23205   0.23381
 Alpha virt. eigenvalues --    0.23643   0.23961   0.24073   0.24331   0.24403
 Alpha virt. eigenvalues --    0.24585   0.24999   0.25242   0.25545   0.25815
 Alpha virt. eigenvalues --    0.25936   0.26273   0.26351   0.26617   0.27060
 Alpha virt. eigenvalues --    0.27088   0.27202   0.27312   0.27824   0.27931
 Alpha virt. eigenvalues --    0.28115   0.28516   0.28613   0.28952   0.29158
 Alpha virt. eigenvalues --    0.29667   0.30194   0.30454   0.30558   0.30731
 Alpha virt. eigenvalues --    0.31399   0.31618   0.32309   0.32562   0.32806
 Alpha virt. eigenvalues --    0.32944   0.33508   0.33759   0.34032   0.34351
 Alpha virt. eigenvalues --    0.34717   0.35136   0.35491   0.35956   0.36304
 Alpha virt. eigenvalues --    0.36893   0.37135   0.37716   0.37824   0.38259
 Alpha virt. eigenvalues --    0.39159   0.39197   0.39674   0.40433   0.41156
 Alpha virt. eigenvalues --    0.41343   0.42316   0.42505   0.43094   0.43734
 Alpha virt. eigenvalues --    0.43900   0.44760   0.45029   0.45539   0.45572
 Alpha virt. eigenvalues --    0.46173   0.46373   0.46705   0.46901   0.47139
 Alpha virt. eigenvalues --    0.47569   0.48065   0.48106   0.48807   0.49009
 Alpha virt. eigenvalues --    0.49462   0.49551   0.50294   0.50518   0.51304
 Alpha virt. eigenvalues --    0.51310   0.51508   0.51687   0.52354   0.52499
 Alpha virt. eigenvalues --    0.52861   0.53273   0.53622   0.53893   0.54166
 Alpha virt. eigenvalues --    0.54314   0.54428   0.54726   0.55026   0.55053
 Alpha virt. eigenvalues --    0.55515   0.55906   0.55945   0.56118   0.56452
 Alpha virt. eigenvalues --    0.56964   0.57246   0.57386   0.57535   0.57776
 Alpha virt. eigenvalues --    0.58006   0.58225   0.58799   0.59112   0.59292
 Alpha virt. eigenvalues --    0.59766   0.60371   0.60467   0.60788   0.60897
 Alpha virt. eigenvalues --    0.61273   0.61392   0.61466   0.61886   0.62016
 Alpha virt. eigenvalues --    0.62241   0.62575   0.62886   0.63265   0.63872
 Alpha virt. eigenvalues --    0.64185   0.64379   0.64804   0.65021   0.65529
 Alpha virt. eigenvalues --    0.65707   0.65910   0.65996   0.66772   0.66905
 Alpha virt. eigenvalues --    0.67250   0.67824   0.68001   0.68288   0.68744
 Alpha virt. eigenvalues --    0.69133   0.69300   0.69608   0.69835   0.69907
 Alpha virt. eigenvalues --    0.70151   0.70319   0.70883   0.71290   0.71511
 Alpha virt. eigenvalues --    0.71920   0.72529   0.72960   0.73227   0.74002
 Alpha virt. eigenvalues --    0.74364   0.74823   0.75038   0.75952   0.76480
 Alpha virt. eigenvalues --    0.77351   0.77506   0.77972   0.78652   0.79059
 Alpha virt. eigenvalues --    0.79541   0.79821   0.80704   0.80860   0.81571
 Alpha virt. eigenvalues --    0.81652   0.82501   0.82831   0.83583   0.84743
 Alpha virt. eigenvalues --    0.85203   0.85523   0.85645   0.86012   0.86624
 Alpha virt. eigenvalues --    0.87038   0.87399   0.88656   0.89387   0.89453
 Alpha virt. eigenvalues --    0.90048   0.90112   0.90850   0.91024   0.91656
 Alpha virt. eigenvalues --    0.92230   0.92779   0.92985   0.93027   0.93719
 Alpha virt. eigenvalues --    0.94325   0.94573   0.95279   0.95366   0.95643
 Alpha virt. eigenvalues --    0.96368   0.96656   0.97160   0.97519   0.98308
 Alpha virt. eigenvalues --    0.99068   0.99891   1.00152   1.00878   1.01278
 Alpha virt. eigenvalues --    1.02117   1.02410   1.03224   1.04091   1.04667
 Alpha virt. eigenvalues --    1.04960   1.05643   1.06309   1.07153   1.07597
 Alpha virt. eigenvalues --    1.07865   1.08632   1.09323   1.09649   1.10028
 Alpha virt. eigenvalues --    1.11134   1.12414   1.12548   1.13378   1.14348
 Alpha virt. eigenvalues --    1.15129   1.15599   1.15934   1.16425   1.17582
 Alpha virt. eigenvalues --    1.18550   1.18624   1.19563   1.21212   1.22096
 Alpha virt. eigenvalues --    1.23598   1.24101   1.24972   1.25719   1.26347
 Alpha virt. eigenvalues --    1.27069   1.27195   1.27645   1.29021   1.29920
 Alpha virt. eigenvalues --    1.31299   1.31635   1.32161   1.33152   1.34036
 Alpha virt. eigenvalues --    1.34647   1.34729   1.35171   1.35408   1.35589
 Alpha virt. eigenvalues --    1.36241   1.36734   1.37001   1.37465   1.37769
 Alpha virt. eigenvalues --    1.38539   1.38911   1.39182   1.39834   1.41747
 Alpha virt. eigenvalues --    1.42380   1.43570   1.44031   1.44581   1.45173
 Alpha virt. eigenvalues --    1.45303   1.45491   1.46800   1.46869   1.47176
 Alpha virt. eigenvalues --    1.47371   1.47467   1.47893   1.48103   1.48359
 Alpha virt. eigenvalues --    1.48795   1.49173   1.49834   1.50356   1.50389
 Alpha virt. eigenvalues --    1.50879   1.51219   1.51365   1.52128   1.52240
 Alpha virt. eigenvalues --    1.52793   1.53288   1.53463   1.54011   1.54093
 Alpha virt. eigenvalues --    1.54624   1.55255   1.55572   1.56167   1.56543
 Alpha virt. eigenvalues --    1.56728   1.57123   1.57400   1.57516   1.57766
 Alpha virt. eigenvalues --    1.57984   1.58270   1.58577   1.59493   1.60105
 Alpha virt. eigenvalues --    1.60678   1.61181   1.62297   1.62714   1.63064
 Alpha virt. eigenvalues --    1.63899   1.64189   1.64987   1.65340   1.65526
 Alpha virt. eigenvalues --    1.65963   1.66343   1.66826   1.67743   1.68042
 Alpha virt. eigenvalues --    1.69207   1.69978   1.70715   1.71659   1.71756
 Alpha virt. eigenvalues --    1.72186   1.72856   1.73677   1.74110   1.75512
 Alpha virt. eigenvalues --    1.76186   1.76531   1.76827   1.77842   1.78078
 Alpha virt. eigenvalues --    1.78935   1.79417   1.79825   1.80124   1.80545
 Alpha virt. eigenvalues --    1.81233   1.81581   1.81870   1.82463   1.83158
 Alpha virt. eigenvalues --    1.83292   1.83676   1.84169   1.84574   1.85694
 Alpha virt. eigenvalues --    1.85912   1.86765   1.87358   1.88700   1.89597
 Alpha virt. eigenvalues --    1.89932   1.90109   1.91022   1.91424   1.91749
 Alpha virt. eigenvalues --    1.92232   1.92363   1.93186   1.93876   1.95066
 Alpha virt. eigenvalues --    1.95229   1.95567   1.96095   1.96473   1.97309
 Alpha virt. eigenvalues --    1.97512   1.98079   1.98984   1.99584   2.00683
 Alpha virt. eigenvalues --    2.01165   2.01981   2.02993   2.04348   2.04906
 Alpha virt. eigenvalues --    2.05160   2.05777   2.06775   2.07312   2.07540
 Alpha virt. eigenvalues --    2.07940   2.08744   2.09188   2.10319   2.10923
 Alpha virt. eigenvalues --    2.11752   2.12576   2.13667   2.14290   2.14993
 Alpha virt. eigenvalues --    2.15634   2.16115   2.16413   2.17182   2.17341
 Alpha virt. eigenvalues --    2.19532   2.19904   2.21325   2.22154   2.22568
 Alpha virt. eigenvalues --    2.24167   2.24442   2.24928   2.25562   2.25872
 Alpha virt. eigenvalues --    2.27014   2.29117   2.29614   2.30026   2.31475
 Alpha virt. eigenvalues --    2.32407   2.33491   2.34065   2.34648   2.35215
 Alpha virt. eigenvalues --    2.35977   2.36344   2.36756   2.37319   2.37611
 Alpha virt. eigenvalues --    2.38031   2.38344   2.38662   2.39401   2.40259
 Alpha virt. eigenvalues --    2.40857   2.41214   2.41400   2.41980   2.42589
 Alpha virt. eigenvalues --    2.43062   2.43564   2.44282   2.44849   2.46166
 Alpha virt. eigenvalues --    2.46664   2.47555   2.47806   2.48412   2.48916
 Alpha virt. eigenvalues --    2.49520   2.50579   2.51079   2.51549   2.52417
 Alpha virt. eigenvalues --    2.52713   2.54131   2.54857   2.55213   2.55683
 Alpha virt. eigenvalues --    2.56547   2.57000   2.57898   2.58725   2.59525
 Alpha virt. eigenvalues --    2.59912   2.60516   2.60876   2.61313   2.62034
 Alpha virt. eigenvalues --    2.62585   2.63649   2.64203   2.64360   2.65281
 Alpha virt. eigenvalues --    2.66415   2.66806   2.67146   2.67536   2.67903
 Alpha virt. eigenvalues --    2.68215   2.69563   2.70409   2.71286   2.71958
 Alpha virt. eigenvalues --    2.72832   2.73291   2.74329   2.75077   2.75255
 Alpha virt. eigenvalues --    2.76342   2.76718   2.77899   2.78238   2.78894
 Alpha virt. eigenvalues --    2.79148   2.79420   2.80185   2.80440   2.81118
 Alpha virt. eigenvalues --    2.82138   2.82496   2.83575   2.83912   2.84588
 Alpha virt. eigenvalues --    2.85417   2.86069   2.86283   2.87181   2.87625
 Alpha virt. eigenvalues --    2.88370   2.89217   2.90010   2.91026   2.91364
 Alpha virt. eigenvalues --    2.91742   2.92670   2.93805   2.94748   2.95245
 Alpha virt. eigenvalues --    2.97242   2.97615   2.99259   3.01355   3.02237
 Alpha virt. eigenvalues --    3.03629   3.04422   3.06232   3.06714   3.07432
 Alpha virt. eigenvalues --    3.08224   3.08700   3.09800   3.10561   3.12477
 Alpha virt. eigenvalues --    3.13306   3.13678   3.14326   3.15888   3.18790
 Alpha virt. eigenvalues --    3.19750   3.20261   3.21308   3.23028   3.24763
 Alpha virt. eigenvalues --    3.25946   3.28117   3.28969   3.29124   3.30537
 Alpha virt. eigenvalues --    3.31924   3.32681   3.37780   3.39478   3.40156
 Alpha virt. eigenvalues --    3.42358   3.43849   3.44552   3.45587   3.46543
 Alpha virt. eigenvalues --    3.49005   3.51847   3.53471   3.55541   3.58420
 Alpha virt. eigenvalues --    3.58940   3.60364   3.62757   3.63677   3.63812
 Alpha virt. eigenvalues --    3.64002   3.64365   3.65516   3.65895   3.66758
 Alpha virt. eigenvalues --    3.67150   3.67206   3.67472   3.68450   3.68680
 Alpha virt. eigenvalues --    3.68762   3.68821   3.69443   3.69718   3.71251
 Alpha virt. eigenvalues --    3.72604   3.72940   3.74390   3.76433   3.79313
 Alpha virt. eigenvalues --    3.82435   3.86446   3.86945   3.90490   3.94332
 Alpha virt. eigenvalues --    3.97971   3.98698   4.00095   4.00787   4.03545
 Alpha virt. eigenvalues --    4.06822   4.09762   4.13229   4.13515   4.15767
 Alpha virt. eigenvalues --    4.16501   4.18216   4.19794   4.20074   4.25862
 Alpha virt. eigenvalues --    4.28145   4.31474   4.45445   4.61987   4.67185
 Alpha virt. eigenvalues --    4.68997   4.83261   4.85424   4.88903   4.92861
 Alpha virt. eigenvalues --    4.98846   5.00286   5.03863   5.07257   5.27912
 Alpha virt. eigenvalues --    5.32519   5.37040   5.67243   5.88188   5.93421
 Alpha virt. eigenvalues --   23.43826  23.63179  23.65302  23.69823  23.71966
 Alpha virt. eigenvalues --   23.76848  23.81771  23.82356  23.83160  23.83787
 Alpha virt. eigenvalues --   23.84527  23.86556  23.90765  23.95820  23.97245
 Alpha virt. eigenvalues --   23.98498  24.01248  24.04927  24.05650  24.11426
 Alpha virt. eigenvalues --   24.16895  24.17565  24.17766  24.19583  24.20207
 Alpha virt. eigenvalues --   24.22801  24.29352  24.30142  24.31199  35.61787
 Alpha virt. eigenvalues --   35.65089  49.86349  49.93016  49.99951
          Condensed to atoms (all electrons):
 Mulliken charges:
               1
     1  C   -0.053649
     2  C    0.019882
     3  C   -0.480063
     4  C   -0.036578
     5  C    0.454495
     6  C   -0.366107
     7  C    0.563415
     8  C    0.185883
     9  C    0.372482
    10  O   -0.093172
    11  C   -0.466376
    12  C    0.093488
    13  C   -0.194555
    14  C   -0.117591
    15  C    0.711970
    16  C    0.289326
    17  C   -0.553085
    18  C   -0.541912
    19  C   -0.320797
    20  C   -0.589556
    21  C   -0.128547
    22  C   -0.871176
    23  O   -0.030034
    24  C    0.094614
    25  C   -0.581064
    26  N   -0.104661
    27  C   -0.014398
    28  C   -0.727613
    29  C   -0.757437
    30  N    0.069305
    31  C    0.025956
    32  C   -0.455381
    33  C   -0.547994
    34  O   -0.098433
    35  H    0.160706
    36  H    0.230517
    37  H    0.190455
    38  H    0.220774
    39  H    0.209665
    40  H    0.195936
    41  H    0.187257
    42  H    0.267769
    43  H    0.159456
    44  H    0.174855
    45  H    0.177013
    46  H    0.155490
    47  H    0.187840
    48  H    0.161363
    49  H    0.158066
    50  H    0.154388
    51  H    0.354096
    52  H    0.186765
    53  H    0.185393
    54  H    0.174790
    55  H    0.163742
    56  H    0.162918
    57  H    0.172849
    58  H    0.176812
    59  H    0.170321
    60  H    0.354552
    61  H    0.163949
    62  H    0.166639
    63  H    0.149541
    64  H    0.172751
    65  H    0.179991
    66  H    0.169204
    67  H    0.153502
 Sum of Mulliken charges =   1.00000
 Mulliken charges with hydrogens summed into heavy atoms:
               1
     1  C   -0.053649
     2  C    0.019882
     3  C   -0.319357
     4  C   -0.036578
     5  C    0.454495
     6  C   -0.135590
     7  C    0.563415
     8  C    0.185883
     9  C    0.372482
    10  O   -0.093172
    11  C   -0.275921
    12  C    0.093488
    13  C   -0.194555
    14  C    0.103183
    15  C    0.711970
    16  C    0.289326
    17  C   -0.553085
    18  C   -0.332247
    19  C   -0.124861
    20  C   -0.402300
    21  C    0.139222
    22  C   -0.359853
    23  O   -0.030034
    24  C    0.437944
    25  C   -0.107247
    26  N    0.249435
    27  C    0.357760
    28  C   -0.226163
    29  C   -0.237455
    30  N    0.423857
    31  C    0.189905
    32  C    0.033550
    33  C   -0.045296
    34  O   -0.098433
 Electronic spatial extent (au):  <R**2>=          18148.1560
 Charge=              1.0000 electrons
 Dipole moment (field-independent basis, Debye):
    X=             -2.0283    Y=              1.7675    Z=             -1.3890  Tot=              3.0278
 Quadrupole moment (field-independent basis, Debye-Ang):
   XX=            -96.8566   YY=           -136.2794   ZZ=           -188.1739
   XY=             13.3933   XZ=             -4.8317   YZ=              7.6916
 Traceless Quadrupole moment (field-independent basis, Debye-Ang):
   XX=             43.5800   YY=              4.1572   ZZ=            -47.7372
   XY=             13.3933   XZ=             -4.8317   YZ=              7.6916
 Octapole moment (field-independent basis, Debye-Ang**2):
  XXX=           -214.6318  YYY=            114.2138  ZZZ=             20.0824  XYY=            120.3330
  XXY=             93.6143  XXZ=             68.2591  XZZ=             20.7978  YZZ=            -40.6564
  YYZ=             -9.6489  XYZ=            -28.0660
 Hexadecapole moment (field-independent basis, Debye-Ang**3):
 XXXX=         -11058.9244 YYYY=          -6894.3979 ZZZZ=          -1954.2697 XXXY=             14.6620
 XXXZ=           -218.0199 YYYX=            458.6041 YYYZ=            204.3260 ZZZX=            109.6254
 ZZZY=             -0.8932 XXYY=          -2998.7662 XXZZ=          -2531.0027 YYZZ=          -1578.8039
 XXYZ=            -38.6931 YYXZ=             18.5203 ZZXY=            -85.9418
 N-N= 3.591529465116D+03 E-N=-1.055679589691D+04  KE= 1.456897101021D+03

 **********************************************************************

            Electrostatic Properties Using The SCF Density

 **********************************************************************

       Atomic Center    1 is at  -3.935689 -0.019692  0.252494
       Atomic Center    2 is at  -3.482260 -1.252780 -0.044446
       Atomic Center    3 is at  -2.177173 -1.410091 -0.331518
       Atomic Center    4 is at  -1.284710 -0.399087 -0.367071
       Atomic Center    5 is at  -1.739997  0.823381 -0.028464
       Atomic Center    6 is at  -3.044042  0.984554  0.261384
       Atomic Center    7 is at   0.030821 -0.563744 -0.658545
       Atomic Center    8 is at   0.867277  0.502659 -0.623405
       Atomic Center    9 is at   0.387865  1.704943 -0.255142
       Atomic Center   10 is at  -0.923580  1.909716  0.044109
       Atomic Center   11 is at   2.169405  0.442316 -0.966606
       Atomic Center   12 is at   3.019205  1.481562 -0.870618
       Atomic Center   13 is at   2.550298  2.670403 -0.434694
       Atomic Center   14 is at   1.236691  2.743665 -0.158739
       Atomic Center   15 is at   0.495511 -1.792963 -0.988929
       Atomic Center   16 is at   1.446300 -2.502977 -0.325038
       Atomic Center   17 is at   2.052257 -2.107604  0.843876
       Atomic Center   18 is at  -0.039199 -2.320359 -2.112351
       Atomic Center   19 is at   0.335526 -3.512201 -2.595132
       Atomic Center   20 is at   1.275590 -4.207484 -1.946529
       Atomic Center   21 is at   1.815183 -3.700554 -0.829070
       Atomic Center   22 is at   4.471531  1.274076 -1.258601
       Atomic Center   23 is at   3.014348 -2.898720  1.432358
       Atomic Center   24 is at   3.652367 -2.451312  2.599267
       Atomic Center   25 is at   4.683738 -3.494313  3.019822
       Atomic Center   26 is at   3.325068  3.718597 -0.291802
       Atomic Center   27 is at   2.882604  5.091166  0.189302
       Atomic Center   28 is at   4.055663  6.079175  0.259515
       Atomic Center   29 is at  -4.397998 -2.462067 -0.049940
       Atomic Center   30 is at  -5.171238  0.132438  0.522392
       Atomic Center   31 is at  -5.884668  1.384197  0.883321
       Atomic Center   32 is at  -6.189357  2.219294 -0.368490
       Atomic Center   33 is at  -7.186916  1.002666  1.605799
       Atomic Center   34 is at   1.779476 -1.054980  1.384863
       Atomic Center   35 is at  -1.860183 -2.446045 -0.524852
       Atomic Center   36 is at  -3.355186  2.009341  0.519675
       Atomic Center   37 is at   2.597026 -0.500050 -1.342139
       Atomic Center   38 is at   0.786374  3.692392  0.175268
       Atomic Center   39 is at  -0.790959 -1.762146 -2.699747
       Atomic Center   40 is at  -0.112049 -3.910047 -3.521101
       Atomic Center   41 is at   1.599782 -5.188939 -2.331755
       Atomic Center   42 is at   2.577030 -4.334164 -0.344431
       Atomic Center   43 is at   4.687179  0.243520 -1.618128
       Atomic Center   44 is at   4.762106  1.958266 -2.087972
       Atomic Center   45 is at   5.140464  1.442703 -0.384136
       Atomic Center   46 is at   4.164156 -1.481566  2.394477
       Atomic Center   47 is at   2.896534 -2.322525  3.409162
       Atomic Center   48 is at   5.216280 -3.177806  3.946169
       Atomic Center   49 is at   4.200104 -4.477238  3.223926
       Atomic Center   50 is at   5.447822 -3.647054  2.223185
       Atomic Center   51 is at   4.326487  3.637177 -0.512113
       Atomic Center   52 is at   2.116808  5.502883 -0.510933
       Atomic Center   53 is at   2.435080  5.003934  1.208334
       Atomic Center   54 is at   3.715508  7.079597  0.613871
       Atomic Center   55 is at   4.841294  5.720561  0.963641
       Atomic Center   56 is at   4.525423  6.217185 -0.741415
       Atomic Center   57 is at  -4.858494 -2.610453  0.953427
       Atomic Center   58 is at  -5.205048 -2.337932 -0.807639
       Atomic Center   59 is at  -3.873687 -3.410829 -0.300299
       Atomic Center   60 is at  -5.756893 -0.737318  0.482104
       Atomic Center   61 is at  -5.262500  1.966977  1.604000
       Atomic Center   62 is at  -6.732058  3.154867 -0.102407
       Atomic Center   63 is at  -5.260663  2.515074 -0.905879
       Atomic Center   64 is at  -6.822230  1.646584 -1.084007
       Atomic Center   65 is at  -7.752678  1.908507  1.922627
       Atomic Center   66 is at  -6.975707  0.400024  2.519029
       Atomic Center   67 is at  -7.850828  0.398167  0.946589
 -----------------------------------------------------------------

              Electrostatic Properties (Atomic Units)

 -----------------------------------------------------------------
    Center     Electric         -------- Electric Field --------
               Potential          X             Y             Z
 -----------------------------------------------------------------
    1 Atom    -14.634626      0.010596      0.000708     -0.002327
    2 Atom    -14.672397      0.000510     -0.018420     -0.002989
    3 Atom    -14.675744     -0.004491     -0.014606     -0.000429
    4 Atom    -14.674194      0.003159     -0.002388     -0.001322
    5 Atom    -14.602000     -0.009329     -0.001604      0.001672
    6 Atom    -14.685904      0.000319      0.017423      0.003220
    7 Atom    -14.647008     -0.001186      0.007166      0.003727
    8 Atom    -14.680677     -0.000545     -0.002957     -0.001462
    9 Atom    -14.607458      0.008616      0.005198     -0.000927
   10 Atom    -22.191223     -0.016444      0.042737      0.012743
   11 Atom    -14.680586      0.011557     -0.005890     -0.005217
   12 Atom    -14.675579      0.012696     -0.011286     -0.006519
   13 Atom    -14.634109     -0.003639     -0.002048      0.000519
   14 Atom    -14.690957     -0.010922      0.012591      0.005393
   15 Atom    -14.665114      0.002466     -0.008531     -0.002853
   16 Atom    -14.666925      0.000997     -0.006574     -0.004770
   17 Atom    -14.563265      0.003369      0.003957      0.008549
   18 Atom    -14.673844     -0.009098      0.003810     -0.008320
   19 Atom    -14.677155     -0.004597     -0.005551     -0.011483
   20 Atom    -14.683165      0.004377     -0.012303     -0.004594
   21 Atom    -14.678863      0.009580     -0.010158      0.004443
   22 Atom    -14.671290      0.000929     -0.000359     -0.000542
   23 Atom    -22.246367      0.010267     -0.038986     -0.018134
   24 Atom    -14.635468      0.008851      0.006652      0.017236
   25 Atom    -14.701112      0.000609     -0.001503     -0.000296
   26 Atom    -18.261361      0.008201      0.016242      0.003012
   27 Atom    -14.625049     -0.001652      0.007237      0.002466
   28 Atom    -14.677514      0.001502      0.000265     -0.000190
   29 Atom    -14.664105      0.000243     -0.001340     -0.000047
   30 Atom    -18.260290     -0.023967      0.003173      0.005949
   31 Atom    -14.619492     -0.006739      0.008591      0.002212
   32 Atom    -14.683544     -0.000310      0.000640     -0.000525
   33 Atom    -14.679486     -0.000400     -0.000153      0.001372
   34 Atom    -22.303881     -0.011416      0.043716      0.023718
   35 Atom     -0.999792      0.004927     -0.003507     -0.001548
   36 Atom     -0.997251     -0.002701      0.005621      0.001760
   37 Atom     -1.003270     -0.000070     -0.005424     -0.002012
   38 Atom     -1.002714     -0.001222      0.006111      0.001683
   39 Atom     -0.998391     -0.003039      0.006091      0.001050
   40 Atom     -1.002230     -0.003578     -0.001391     -0.005802
   41 Atom     -1.008759      0.002853     -0.005840     -0.000937
   42 Atom     -1.008598      0.004263      0.003359      0.008819
   43 Atom     -1.015850     -0.003362     -0.003589     -0.000384
   44 Atom     -1.015183      0.004631      0.004775     -0.002769
   45 Atom     -1.014499      0.005818      0.003093      0.002924
   46 Atom     -1.038190     -0.002028      0.006094      0.001388
   47 Atom     -1.039467     -0.002878      0.005479      0.002165
   48 Atom     -1.040791      0.000288      0.002657      0.002706
   49 Atom     -1.048099     -0.001543     -0.003329      0.000824
   50 Atom     -1.047758      0.002741     -0.000618     -0.002655
   51 Atom     -0.917085      0.003976     -0.000812     -0.001054
   52 Atom     -1.015021     -0.004486     -0.002125     -0.001826
   53 Atom     -1.014957     -0.003757     -0.003413      0.001710
   54 Atom     -1.020514     -0.002621      0.001197      0.000820
   55 Atom     -1.026339      0.003184     -0.000461      0.003217
   56 Atom     -1.026287      0.001907      0.001608     -0.003846
   57 Atom     -1.006934     -0.005075     -0.002449      0.004357
   58 Atom     -1.006257     -0.006515     -0.001362     -0.002745
   59 Atom     -1.008219      0.004320     -0.000295     -0.000884
   60 Atom     -0.907885      0.001667      0.013283      0.002140
   61 Atom     -1.012054      0.005013      0.000836      0.000733
   62 Atom     -1.025731     -0.001967      0.002962      0.001742
   63 Atom     -1.028018      0.003491      0.001312     -0.002637
   64 Atom     -1.026941     -0.002950     -0.002570     -0.002048
   65 Atom     -1.021827     -0.000869      0.002603     -0.000128
   66 Atom     -1.025973      0.000479     -0.001682      0.003986
   67 Atom     -1.022500     -0.003724     -0.001744     -0.003681
 -----------------------------------------------------------------
 -----------------------------------------------------
    Center         ---- Electric Field Gradient ----
                     XX            YY            ZZ
 -----------------------------------------------------
    1 Atom     -501.082047   -500.831651   -501.492459
    2 Atom     -500.741699   -500.840029   -501.108511
    3 Atom     -500.917993   -501.010590   -501.433578
    4 Atom     -500.791278   -500.784455   -501.067290
    5 Atom     -500.864493   -501.073808   -501.202116
    6 Atom     -500.645841   -500.686796   -500.815745
    7 Atom     -501.180843   -501.175158   -501.913298
    8 Atom     -500.795974   -500.841527   -501.103575
    9 Atom     -501.284027   -500.607513   -501.209188
   10 Atom    -1237.939882  -1236.447429  -1235.634094
   11 Atom     -500.953813   -501.001764   -501.387404
   12 Atom     -500.813578   -500.716848   -501.061516
[...]
   60 Atom       -1.927239     -1.893100     -1.594920
   61 Atom       -1.922841     -1.780034     -1.915361
   62 Atom       -1.707163     -2.042045     -1.738976
   63 Atom       -2.033698     -1.690251     -1.790896
   64 Atom       -1.893858     -1.724672     -1.875131
   65 Atom       -1.730496     -2.027678     -1.726683
   66 Atom       -1.690411     -1.857570     -1.952815
   67 Atom       -1.891317     -1.739319     -1.860878
 -----------------------------------------------------
 -----------------------------------------------------
    Center         ---- Electric Field Gradient ----
                     XY            XZ            YZ
 -----------------------------------------------------
    1 Atom        0.096456      0.001863      0.179444
    2 Atom       -0.016075     -0.035874      0.078060
    3 Atom       -0.026980     -0.043987      0.143389
    4 Atom        0.027900     -0.007745      0.062068
    5 Atom       -0.322225     -0.130335      0.102641
    6 Atom       -0.007421     -0.009947      0.040083
    7 Atom        0.038399     -0.045381      0.196653
    8 Atom        0.010464     -0.019992      0.058302
    9 Atom        0.174648      0.062879      0.156986
   10 Atom       -0.581385      0.006202     -0.098030
   11 Atom        0.048476     -0.025496      0.147503
   12 Atom        0.077479     -0.002790      0.086945
   13 Atom       -0.118735     -0.081556      0.153976
   14 Atom       -0.002686     -0.011847      0.046892
   15 Atom       -0.069581      0.004739     -0.044920
   16 Atom       -0.093146     -0.008964      0.021237
   17 Atom       -0.106569     -0.044984      0.146566
   18 Atom       -0.112460     -0.009243      0.011040
   19 Atom       -0.136468     -0.004932     -0.014774
   20 Atom       -0.122628     -0.006155     -0.008821
   21 Atom       -0.131210     -0.003563     -0.023471
   22 Atom        0.035283      0.020138      0.006215
   23 Atom        0.235186     -0.188909      0.895870
   24 Atom        0.006361      0.009235      0.003661
   25 Atom        0.026868     -0.007397      0.034336
   26 Atom       -0.050070      0.084341     -0.427403
   27 Atom        0.075217      0.029162     -0.162101
   28 Atom       -0.062510     -0.012387     -0.003517
   29 Atom       -0.072371     -0.022705     -0.005053
   30 Atom        0.008885      0.099447     -0.418458
   31 Atom        0.156698      0.077648     -0.136825
   32 Atom        0.009574     -0.013835      0.061414
   33 Atom       -0.030516      0.045120      0.005093
   34 Atom       -0.129144      0.192490     -0.912727
   35 Atom        0.078293      0.029705     -0.146846
   36 Atom        0.067692      0.026228     -0.149939
   37 Atom        0.119369      0.045468     -0.141229
   38 Atom        0.130848      0.050828     -0.145454
   39 Atom        0.075061     -0.050807      0.211146
   40 Atom        0.005767      0.017180     -0.038767
   41 Atom        0.098730      0.043685     -0.166728
   42 Atom        0.073615     -0.051291      0.212917
   43 Atom        0.053656      0.019872     -0.142291
   44 Atom       -0.107055      0.121742      0.186686
   45 Atom       -0.021195     -0.196621     -0.042065
   46 Atom       -0.205496     -0.090667     -0.087516
   47 Atom        0.127170      0.112896     -0.037620
   48 Atom        0.002175      0.004793      0.001856
   49 Atom       -0.201589     -0.103856     -0.094200
   50 Atom        0.122383      0.127562     -0.038505
   51 Atom        0.124378      0.086207     -0.045563
   52 Atom        0.121331     -0.173011      0.126232
   53 Atom       -0.014031      0.185385      0.018442
   54 Atom        0.083882      0.031284     -0.141824
   55 Atom        0.118012     -0.181331      0.134014
   56 Atom       -0.022097      0.188570      0.031165
   57 Atom       -0.041219      0.193352      0.062339
   58 Atom        0.099705     -0.197102      0.104226
   59 Atom        0.139015      0.053683     -0.134738
   60 Atom       -0.270116     -0.073452     -0.102484
   61 Atom       -0.092859     -0.191885     -0.102630
   62 Atom        0.110287      0.044251     -0.141526
   63 Atom       -0.036697      0.189191      0.026106
   64 Atom       -0.098190     -0.205480     -0.086545
   65 Atom        0.132895      0.056465     -0.135690
   66 Atom        0.029332     -0.033708      0.220906
   67 Atom       -0.113476     -0.189112     -0.107400
 -----------------------------------------------------
 -----------------------------------------------------
    Center         ---- Electric Field Gradient ----
                   ----       Eigenvalues       ----
 -----------------------------------------------------
    1 Atom     -501.251111   -500.883149   -500.605381
    2 Atom     -500.981545   -500.735381   -500.583206
    3 Atom     -501.292910   -500.862313   -500.773973
    4 Atom     -500.801810   -500.601512   -500.536361
    5 Atom     -501.228656   -501.149219   -500.532750
    6 Atom     -500.665815   -500.547781   -500.515253
    7 Atom     -501.612863   -500.965734   -500.870685
    8 Atom     -500.800699   -500.600463   -500.535955
    9 Atom     -501.228386   -501.149220   -500.532403
   10 Atom    -1238.164078  -1235.816133  -1235.531472
   11 Atom     -501.288763   -500.859970   -500.771469
   12 Atom     -500.980121   -500.731214   -500.581648
   13 Atom     -501.247593   -500.887079   -500.606834
   14 Atom     -500.679515   -500.552666   -500.521751
   15 Atom     -501.032980   -500.752764   -500.591092
   16 Atom     -501.041922   -500.804536   -500.649464
   17 Atom     -501.527907   -501.161222   -500.811149
   18 Atom     -501.222995   -500.805324   -500.747942
   19 Atom     -501.370832   -500.823162   -500.789436
   20 Atom     -501.291656   -500.778732   -500.760832
   21 Atom     -501.388241   -500.845341   -500.783115
   22 Atom     -500.308084   -500.195303   -500.155713
   23 Atom    -1238.719971  -1236.564876  -1235.990798
   24 Atom     -501.085231   -500.273402   -500.239708
   25 Atom     -500.351384   -500.227103   -500.211707
   26 Atom     -812.311887   -812.225503   -810.890664
   27 Atom     -500.602425   -500.109767   -500.075833
   28 Atom     -500.353874   -500.202962   -500.195648
   29 Atom     -500.308726   -500.196524   -500.156390
   30 Atom     -812.407204   -812.318269   -811.021327
   31 Atom     -500.626298   -500.137531   -500.083061
   32 Atom     -500.440921   -500.315707   -500.312466
   33 Atom     -500.419998   -500.293505   -500.270375
   34 Atom    -1238.723041  -1238.589488  -1236.306334
   35 Atom       -2.148317     -1.692214     -1.666273
   36 Atom       -2.145255     -1.679944     -1.644311
   37 Atom       -2.147977     -1.691927     -1.665970
   38 Atom       -2.141538     -1.677610     -1.641781
   39 Atom       -2.149848     -1.691549     -1.667036
   40 Atom       -2.148492     -1.686091     -1.667863
   41 Atom       -2.149268     -1.686450     -1.666573
   42 Atom       -2.141734     -1.678659     -1.663508
   43 Atom       -2.135998     -1.685135     -1.671673
   44 Atom       -2.116500     -1.676081     -1.668000
   45 Atom       -2.116446     -1.676053     -1.667863
   46 Atom       -2.153314     -1.727454     -1.700896
   47 Atom       -2.153281     -1.727435     -1.700754
   48 Atom       -2.125492     -1.676808     -1.666463
   49 Atom       -2.136105     -1.686280     -1.676401
   50 Atom       -2.135923     -1.686130     -1.676301
   51 Atom       -2.205915     -1.643846     -1.557973
   52 Atom       -2.142468     -1.718550     -1.702732
   53 Atom       -2.141856     -1.718346     -1.702547
   54 Atom       -2.128936     -1.678188     -1.667968
   55 Atom       -2.132424     -1.686677     -1.677812
   56 Atom       -2.132361     -1.686526     -1.677757
   57 Atom       -2.116213     -1.675671     -1.667811
   58 Atom       -2.116726     -1.676472     -1.668176
   59 Atom       -2.136180     -1.685358     -1.671840
   60 Atom       -2.205910     -1.646922     -1.562427
   61 Atom       -2.161130     -1.736439     -1.720668
   62 Atom       -2.131160     -1.683214     -1.673810
   63 Atom       -2.141522     -1.692013     -1.681310
   64 Atom       -2.132167     -1.686121     -1.675374
   65 Atom       -2.131724     -1.681726     -1.671407
   66 Atom       -2.135652     -1.686311     -1.678834
   67 Atom       -2.128532     -1.686706     -1.676276
 -----------------------------------------------------
 -----------------------------------------------------
    Center         ---- Electric Field Gradient ----
                       ( tensor representation )
                   3XX-RR        3YY-RR        3ZZ-RR
 -----------------------------------------------------
    1 Atom        0.062971      0.214356     -0.277328
    2 Atom        0.176473      0.008762     -0.185235
    3 Atom        0.174690      0.088652     -0.263342
    4 Atom        0.098575      0.035324     -0.133900
    5 Atom        0.078370      0.056458     -0.134828
    6 Atom        0.031430      0.045726     -0.077156
    7 Atom        0.269618      0.122834     -0.392452
    8 Atom        0.107646      0.026542     -0.134187
    9 Atom       -0.203758      0.336291     -0.132533
   10 Atom       -1.508758      0.574114      0.934644
   11 Atom        0.131186      0.131596     -0.262782
   12 Atom        0.122703      0.063770     -0.186473
   13 Atom        0.181599      0.093560     -0.275159
   14 Atom        0.032471      0.045830     -0.078301
   15 Atom       -0.223068      0.035467      0.187601
   16 Atom       -0.186143      0.155328      0.030815
   17 Atom       -0.334630      0.069267      0.265364
   18 Atom       -0.268955      0.145851      0.123104
   19 Atom       -0.341775      0.164325      0.177451
   20 Atom       -0.316800      0.137446      0.179354
   21 Atom       -0.349332      0.136014      0.213318
   22 Atom       -0.076438      0.051618      0.024820
   23 Atom        1.047177      0.071711     -1.118887
   24 Atom        0.291708      0.260626     -0.552334
   25 Atom        0.045818     -0.071235      0.025417
   26 Atom       -0.414359     -0.352992      0.767351
   27 Atom        0.139482     -0.268448      0.128966
   28 Atom       -0.070730      0.023042      0.047689
   29 Atom       -0.014478     -0.010038      0.024516
   30 Atom       -0.456354     -0.282215      0.738569
   31 Atom        0.127257     -0.231092      0.103836
   32 Atom        0.038970     -0.006401     -0.032569
   33 Atom       -0.065845      0.048491      0.017354
   34 Atom       -0.821631     -0.261549      1.083180
   35 Atom        0.127593     -0.244699      0.117107
   36 Atom        0.131863     -0.259138      0.127275
   37 Atom        0.104449     -0.222676      0.118227
   38 Atom        0.095680     -0.220999      0.125320
   39 Atom        0.150838     -0.139416     -0.011422
   40 Atom        0.164560      0.145866     -0.310426
   41 Atom        0.141870     -0.212528      0.070659
   42 Atom        0.146630     -0.139540     -0.007090
   43 Atom        0.138504     -0.247954      0.109450
   44 Atom        0.077801     -0.025078     -0.052724
   45 Atom        0.026353      0.143265     -0.169618
   46 Atom       -0.050870     -0.040960      0.091830
   47 Atom       -0.213054      0.116327      0.096727
   48 Atom        0.155920      0.146594     -0.302514
   49 Atom       -0.062060     -0.044963      0.107023
   50 Atom       -0.219714      0.107457      0.112257
   51 Atom       -0.359672      0.136776      0.222896
   52 Atom       -0.009244      0.044222     -0.034978
   53 Atom        0.048261      0.135398     -0.183659
   54 Atom        0.128363     -0.233911      0.105548
   55 Atom       -0.014658      0.058756     -0.044099
   56 Atom        0.045307      0.147720     -0.193027
   57 Atom        0.032854      0.132193     -0.165047
   58 Atom       -0.035216      0.090168     -0.054952
   59 Atom        0.089588     -0.197955      0.108367
   60 Atom       -0.122153     -0.088014      0.210166
   61 Atom       -0.050095      0.092711     -0.042616
   62 Atom        0.122231     -0.212650      0.090419
   63 Atom       -0.195417      0.148031      0.047386
   64 Atom       -0.062638      0.106548     -0.043910
   65 Atom        0.097790     -0.199393      0.101603
   66 Atom        0.143188     -0.023971     -0.119217
   67 Atom       -0.060812      0.091185     -0.030373
 -----------------------------------------------------
 -----------------------------------------------------
    Center         ---- Electric Field Gradient ----
                       ( tensor representation )
                   ----       Eigenvalues       ----
 -----------------------------------------------------
    1 Atom       -0.337897      0.030065      0.307833
    2 Atom       -0.214834      0.031330      0.183504
    3 Atom       -0.316511      0.114086      0.202426
    4 Atom       -0.155249      0.045049      0.110200
    5 Atom       -0.258448     -0.179011      0.437459
    6 Atom       -0.089532      0.028502      0.061030
    7 Atom       -0.463103      0.184027      0.279076
    8 Atom       -0.154993      0.045242      0.109751
    9 Atom       -0.258383     -0.179217      0.437600
   10 Atom       -1.660183      0.687761      0.972422
   11 Atom       -0.315362      0.113431      0.201932
   12 Atom       -0.215793      0.033114      0.182680
   13 Atom       -0.333758      0.026757      0.307001
   14 Atom       -0.094871      0.031978      0.062893
   15 Atom       -0.240702      0.039515      0.201187
   16 Atom       -0.209948      0.027438      0.182510
   17 Atom       -0.361148      0.005537      0.355611
   18 Atom       -0.297575      0.120096      0.177479
   19 Atom       -0.376356      0.171314      0.205041
   20 Atom       -0.347916      0.165008      0.182908
   21 Atom       -0.382675      0.160225      0.222451
   22 Atom       -0.088384      0.024397      0.063988
   23 Atom       -1.628089      0.527006      1.101083
   24 Atom       -0.552451      0.259378      0.293072
   25 Atom       -0.087986      0.036295      0.051691
   26 Atom       -0.502535     -0.416152      0.918688
   27 Atom       -0.339750      0.152908      0.186842
   28 Atom       -0.103046      0.047866      0.055180
   29 Atom       -0.088179      0.024023      0.064157
   30 Atom       -0.491604     -0.402669      0.894273
   31 Atom       -0.344002      0.144766      0.199236
   32 Atom       -0.084556      0.040658      0.043899
   33 Atom       -0.092039      0.034454      0.057584
   34 Atom       -0.850087     -0.716533      1.566620
   35 Atom       -0.312716      0.143387      0.169328
   36 Atom       -0.322085      0.143226      0.178859
   37 Atom       -0.312686      0.143364      0.169321
   38 Atom       -0.321228      0.142700      0.178528
   39 Atom       -0.313704      0.144596      0.169108
   40 Atom       -0.314343      0.148058      0.166286
   41 Atom       -0.315171      0.147647      0.167524
   42 Atom       -0.313767      0.149308      0.164459
   43 Atom       -0.305063      0.145801      0.159262
   44 Atom       -0.296306      0.144112      0.152194
   45 Atom       -0.296325      0.144068      0.152257
   46 Atom       -0.292759      0.133101      0.159658
   47 Atom       -0.292791      0.133055      0.159736
   48 Atom       -0.302571      0.146113      0.156458
   49 Atom       -0.303176      0.146649      0.156527
   50 Atom       -0.303138      0.146654      0.156484
   51 Atom       -0.403337      0.158732      0.244605
   52 Atom       -0.287885      0.136033      0.151851
   53 Atom       -0.287607      0.135904      0.151703
   54 Atom       -0.303905      0.146843      0.157062
   55 Atom       -0.300119      0.145627      0.154492
   56 Atom       -0.300146      0.145689      0.154458
   57 Atom       -0.296315      0.144228      0.152087
   58 Atom       -0.296268      0.143986      0.152282
   59 Atom       -0.305054      0.145768      0.159286
   60 Atom       -0.400824      0.158164      0.242659
   61 Atom       -0.288384      0.136307      0.152077
   62 Atom       -0.301765      0.146180      0.155585
   63 Atom       -0.303240      0.146268      0.156972
   64 Atom       -0.300946      0.145099      0.155847
   65 Atom       -0.303439      0.146560      0.156879
   66 Atom       -0.302053      0.147288      0.154765
   67 Atom       -0.298028      0.143799      0.154229
 -----------------------------------------------------

 Test job not archived.
 1|1|UNPC-NP-ALMACH|FOpt|RB3LYP|6-311++G(d,p)|C29H33N2O3(1+)|HERA|05-Se
 p-2018|0||# RB3LYP/6-311++G** Opt Test prop=EFG||C29N2H33O3||1,1|C,-3.
 1913255313,1.5601181623,-1.6827361116|C,-3.1779524072,0.1142737822,-1.
 6287223848|C,-1.9798282872,-0.5392920721,-1.721241797|C,-0.7358161626,
 0.1384950031,-1.8707372806|C,-0.7919681142,1.5553612577,-1.9252742836|
 C,-1.9776875538,2.2555040946,-1.8405034056|C,0.5157325856,-0.501897010
 9,-1.9413142583|C,1.6751261008,0.2781802546,-2.1212220061|C,1.55532154
 93,1.6906620266,-2.1711198766|O,0.3413448757,2.2896749422,-2.067120679
 8|C,2.9921248966,-0.2526749162,-2.2353253109|C,4.1015401574,0.53391577
 03,-2.3866365971|C,3.9347991501,1.9683949091,-2.4314393407|C,2.6465057
 156,2.5224237828,-2.3232658885|C,0.6017555933,-1.9952316204,-1.9351651
 053|C,0.7541576393,-2.7586925019,-0.7598014361|C,0.8446676087,-2.07290
 76652,0.5676319249|C,0.5208083381,-2.6520620941,-3.1671276332|C,0.5884
 046428,-4.041509528,-3.2425274367|C,0.7386541624,-4.7950596992,-2.0812
 97653|C,0.8205263426,-4.1549699598,-0.8500378232|C,5.4768610469,-0.068
 6512814,-2.504040598|O,0.9753388119,-2.9349452262,1.5832910332|C,1.076
 0037631,-2.3647739725,2.9210810115|C,1.192277788,-3.5119721175,3.90082
 46058|N,5.0234838525,2.7571663652,-2.5780802796|C,5.0122898058,4.21840
 73586,-2.634076949|C,6.4275915913,4.759512528,-2.7962721759|C,-4.46792
 06132,-0.6460957919,-1.4645584821|N,-4.3733240445,2.206840321,-1.56731
 89069|C,-4.5983657061,3.6600677804,-1.6205002631|C,-4.6410286395,4.171
 0064505,-3.0672279354|C,-5.8851877989,3.981491125,-0.8587259615|O,0.80
 42010848,-0.8689437151,0.7082999395|H,-1.968322198,-1.6214014533,-1.67
 79060757|H,-1.9439083298,3.3335700638,-1.897095343|H,3.1122759087,-1.3
 285005857,-2.200119151|H,2.4851233424,3.5903450096,-2.3526942419|H,0.4
 028111913,-2.068331415,-4.0730077809|H,0.5231215392,-4.5301834004,-4.2
 07721385|H,0.7917609677,-5.8758970943,-2.133683564|H,0.9375663752,-4.7
 301708894,0.0583058059|H,5.427103627,-1.156241526,-2.4531034188|H,5.95
 51187901,0.1924449098,-3.4549971425|H,6.1372418055,0.2659964529,-1.695
 8746125|H,1.9478969707,-1.7080764608,2.9456083292|H,0.1881588799,-1.75
 50309157,3.0991892424|H,1.2713857366,-3.1147984172,4.9158940869|H,0.31
 41436475,-4.1595866383,3.8563221343|H,2.0811461463,-4.1139845783,3.700
 8142342|H,5.9235112935,2.3087399692,-2.6437728091|H,4.3860984419,4.543
 5685934,-3.4726348169|H,4.5615351237,4.612328605,-1.7160351206|H,6.407
 1221658,5.8498013221,-2.8338237735|H,7.0627420376,4.4673726787,-1.9556
 260056|H,6.8857924174,4.4030387025,-3.7227702489|H,-4.9763926303,-0.38
 50076747,-0.5294862202|H,-5.1643072859,-0.4514012971,-2.2883025625|H,-
 4.2818564782,-1.7198151528,-1.4446563714|H,-5.2015627953,1.6371710559,
 -1.4856652881|H,-3.7643772287,4.134138066,-1.0941782622|H,-4.740900175
 ,5.2591677722,-3.0808488981|H,-3.7339874316,3.9064999118,-3.614934885|
 H,-5.4956009367,3.7446181267,-3.599732385|H,-6.0679066448,5.0574475208
 ,-0.865943605|H,-5.8236265641,3.6528678455,0.181092992|H,-6.7490439535
 ,3.4988211513,-1.3280605121||Version=EM64W-G09RevD.01|State=1-A|HF=-14
 60.3874424|RMSD=6.439e-009|RMSF=2.493e-006|Dipole=0.1049347,0.851037,-
 0.6348689|Quadrupole=30.6074664,0.6985706,-31.306037,0.4946163,-6.0631
 185,-8.6512215|PG=C01 [X(C29H33N2O3)]||@


 ON A CLEAR DISK YOU CAN SEEK FOREVER.
 Job cpu time:       0 days  6 hours  2 minutes 43.0 seconds.
 File lengths (MBytes):  RWF=    602 Int=      0 D2E=      0 Chk=     81 Scr=      1
 Normal termination of Gaussian 09 at Wed Sep 05 09:46:06 2018.
