 Entering Link 1 = C:\G09W\l1.exe PID=      5264.
  
 Copyright (c) 1988,1990,1992,1993,1995,1998,2003,2009,2013,
            Gaussian, Inc.  All Rights Reserved.
  
 This is part of the Gaussian(R) 09 program.  It is based on
 the Gaussian(R) 03 system (copyright 2003, Gaussian, Inc.),
 the Gaussian(R) 98 system (copyright 1998, Gaussian, Inc.),
 the Gaussian(R) 94 system (copyright 1995, Gaussian, Inc.),
 the Gaussian 92(TM) system (copyright 1992, Gaussian, Inc.),
 the Gaussian 90(TM) system (copyright 1990, Gaussian, Inc.),
 the Gaussian 88(TM) system (copyright 1988, Gaussian, Inc.),
 the Gaussian 86(TM) system (copyright 1986, Carnegie Mellon
 University), and the Gaussian 82(TM) system (copyright 1983,
 Carnegie Mellon University). Gaussian is a federally registered
 trademark of Gaussian, Inc.
  
 This software contains proprietary and confidential information,
 including trade secrets, belonging to Gaussian, Inc.
  
 This software is provided under written license and may be
 used, copied, transmitted, or stored only in accord with that
 written license.
  
 The following legend is applicable only to US Government
 contracts under FAR:
  
                    RESTRICTED RIGHTS LEGEND
  
 Use, reproduction and disclosure by the US Government is
 subject to restrictions as set forth in subparagraphs (a)
 and (c) of the Commercial Computer Software - Restricted
 Rights clause in FAR 52.227-19.
  
 Gaussian, Inc.
 340 Quinnipiac St., Bldg. 40, Wallingford CT 06492
  
  
 ---------------------------------------------------------------
 Warning -- This program may not be used in any manner that
 competes with the business of Gaussian, Inc. or will provide
 assistance to any competitor of Gaussian, Inc.  The licensee
 of this program is prohibited from giving any competitor of
 Gaussian, Inc. access to this program.  By using this program,
 the user acknowledges that Gaussian, Inc. is engaged in the
 business of creating and licensing software in the field of
 computational chemistry and represents and warrants to the
 licensee that it is not a competitor of Gaussian, Inc. and that
 it will not use this program in any manner prohibited above.
 ---------------------------------------------------------------
  

 Cite this work as:
 Gaussian 09, Revision D.01,
 M. J. Frisch, G. W. Trucks, H. B. Schlegel, G. E. Scuseria, 
 M. A. Robb, J. R. Cheeseman, G. Scalmani, V. Barone, B. Mennucci, 
 G. A. Petersson, H. Nakatsuji, M. Caricato, X. Li, H. P. Hratchian, 
 A. F. Izmaylov, J. Bloino, G. Zheng, J. L. Sonnenberg, M. Hada, 
 M. Ehara, K. Toyota, R. Fukuda, J. Hasegawa, M. Ishida, T. Nakajima, 
 Y. Honda, O. Kitao, H. Nakai, T. Vreven, J. A. Montgomery, Jr., 
 J. E. Peralta, F. Ogliaro, M. Bearpark, J. J. Heyd, E. Brothers, 
 K. N. Kudin, V. N. Staroverov, T. Keith, R. Kobayashi, J. Normand, 
 K. Raghavachari, A. Rendell, J. C. Burant, S. S. Iyengar, J. Tomasi, 
 M. Cossi, N. Rega, J. M. Millam, M. Klene, J. E. Knox, J. B. Cross, 
 V. Bakken, C. Adamo, J. Jaramillo, R. Gomperts, R. E. Stratmann, 
 O. Yazyev, A. J. Austin, R. Cammi, C. Pomelli, J. W. Ochterski, 
 R. L. Martin, K. Morokuma, V. G. Zakrzewski, G. A. Voth, 
 P. Salvador, J. J. Dannenberg, S. Dapprich, A. D. Daniels, 
 O. Farkas, J. B. Foresman, J. V. Ortiz, J. Cioslowski, 
 and D. J. Fox, Gaussian, Inc., Wallingford CT, 2013.
 
 ******************************************
 Gaussian 09:  EM64W-G09RevD.01 13-Apr-2013
                27-Aug-2018 
 ******************************************
 %Chk=Anth_382.chk
 %Mem=64GB
 %NProcShared=20
 Will use up to   20 processors via shared memory.
 -------------------------------------
 # RB3LYP/6-311++G** Opt Test prop=EFG
 -------------------------------------
 1/14=-1,18=20,19=15,26=3,38=1/1,3;
 2/9=110,12=2,17=6,18=5,40=1/2;
 3/5=4,6=6,7=1111,11=2,16=1,25=1,30=1,71=1,74=-5,116=1/1,2,3;
 4//1;
 5/5=2,38=5/2;
 6/7=2,8=2,9=2,10=2,14=1,28=1/1,2;
 7//1,2,3,16;
 1/14=-1,18=20,19=15,26=3/3(2);
 2/9=110/2;
 99//99;
 2/9=110/2;
 3/5=4,6=6,7=1111,11=2,16=1,25=1,30=1,71=1,74=-5,116=1/1,2,3;
 4/5=5,16=3,69=1/1;
 5/5=2,38=5/2;
 7//1,2,3,16;
 1/14=-1,18=20,19=15,26=3/3(-5);
 2/9=110/2;
 6/7=2,8=2,9=2,10=2,14=1,19=2,28=1/1,2;
 99/9=1/99;
 --------
 C17N2H21
 --------
 Symbolic Z-matrix:
 Charge =  1 Multiplicity = 1
 C                     2.07175   2.54657   0.00656 
 C                     2.83793   1.79171  -0.81277 
 C                     2.16994   1.18345  -1.81876 
 C                     0.84574   1.31285  -1.99954 
 C                     0.12086   2.07057  -1.16724 
 C                     0.74676   2.68861  -0.158 
 C                    -1.40133   2.21735  -1.35829 
 N                     4.10301   1.66186  -0.64767 
 C                     4.88988   0.81558  -1.58359 
 C                     4.77889   2.35784   0.47937 
 C                    -2.3508    1.14726  -0.7851 
 C                    -2.79603   0.14506  -1.55302 
 C                    -3.61555  -0.78793  -1.04235 
 C                    -4.03228  -0.77631   0.24385 
 C                    -3.56089   0.25002   0.9872 
 C                    -2.7406    1.19218   0.49488 
 N                    -4.81524  -1.67189   0.72285 
 C                    -5.23659  -1.60326   2.14735 
 C                    -5.29937  -2.776    -0.14779 
 H                    -1.80888   3.0832   -1.90199 
 H                     2.48866   3.09543   0.8657 
 H                     2.67278   0.5386   -2.55669 
 H                     0.34578   0.79344  -2.83446 
 H                     0.16456   3.31574   0.53814 
 H                     4.56207  -0.24818  -1.5435 
 H                     4.85071   1.2132   -2.62328 
 H                     5.96663   0.80915  -1.30466 
 H                     4.68833   3.46422   0.38781 
 H                     4.4006    1.99997   1.46399 
 H                     5.87062   2.14497   0.48114 
 H                    -2.48357   0.09175  -2.60961 
 H                    -3.92365  -1.5681   -1.75619 
 H                    -3.8207    0.37785   2.04992 
 H                    -2.38069   2.00901   1.14301 
 H                    -4.36474  -1.69527   2.83446 
 H                    -5.82088  -0.67796   2.35499 
 H                    -5.91191  -2.44913   2.40372 
 H                    -5.91223  -2.38863  -0.99338 
 H                    -4.45643  -3.40591  -0.51291 
 H                    -5.96663  -3.46422   0.41645 
 

 GradGradGradGradGradGradGradGradGradGradGradGradGradGradGradGradGradGrad
 Berny optimization.
 Initialization pass.
                           ----------------------------
                           !    Initial Parameters    !
                           ! (Angstroms and Degrees)  !
 --------------------------                            --------------------------
 ! Name  Definition              Value          Derivative Info.                !
 --------------------------------------------------------------------------------
 ! R1    R(1,2)                  1.3521         estimate D2E/DX2                !
 ! R2    R(1,6)                  1.3427         estimate D2E/DX2                !
 ! R3    R(1,21)                 1.1014         estimate D2E/DX2                !
 ! R4    R(2,3)                  1.3521         estimate D2E/DX2                !
 ! R5    R(2,8)                  1.2824         estimate D2E/DX2                !
 ! R6    R(3,4)                  1.3427         estimate D2E/DX2                !
 ! R7    R(3,22)                 1.1015         estimate D2E/DX2                !
 ! R8    R(4,5)                  1.3388         estimate D2E/DX2                !
 ! R9    R(4,23)                 1.1031         estimate D2E/DX2                !
 ! R10   R(5,6)                  1.3388         estimate D2E/DX2                !
 ! R11   R(5,7)                  1.5411         estimate D2E/DX2                !
 ! R12   R(6,24)                 1.1031         estimate D2E/DX2                !
 ! R13   R(7,11)                 1.5411         estimate D2E/DX2                !
 ! R14   R(7,20)                 1.1006         estimate D2E/DX2                !
 ! R15   R(8,9)                  1.487          estimate D2E/DX2                !
 ! R16   R(8,10)                 1.4871         estimate D2E/DX2                !
 ! R17   R(9,25)                 1.1138         estimate D2E/DX2                !
 ! R18   R(9,26)                 1.1138         estimate D2E/DX2                !
 ! R19   R(9,27)                 1.1123         estimate D2E/DX2                !
 ! R20   R(10,28)                1.1139         estimate D2E/DX2                !
 ! R21   R(10,29)                1.1139         estimate D2E/DX2                !
 ! R22   R(10,30)                1.1123         estimate D2E/DX2                !
 ! R23   R(11,12)                1.3388         estimate D2E/DX2                !
 ! R24   R(11,16)                1.3388         estimate D2E/DX2                !
 ! R25   R(12,13)                1.3427         estimate D2E/DX2                !
 ! R26   R(12,31)                1.1031         estimate D2E/DX2                !
 ! R27   R(13,14)                1.3521         estimate D2E/DX2                !
 ! R28   R(13,32)                1.1014         estimate D2E/DX2                !
 ! R29   R(14,15)                1.3521         estimate D2E/DX2                !
 ! R30   R(14,17)                1.2824         estimate D2E/DX2                !
 ! R31   R(15,16)                1.3427         estimate D2E/DX2                !
 ! R32   R(15,33)                1.1015         estimate D2E/DX2                !
 ! R33   R(16,34)                1.1031         estimate D2E/DX2                !
 ! R34   R(17,18)                1.4871         estimate D2E/DX2                !
 ! R35   R(17,19)                1.4871         estimate D2E/DX2                !
 ! R36   R(18,35)                1.1139         estimate D2E/DX2                !
 ! R37   R(18,36)                1.1139         estimate D2E/DX2                !
 ! R38   R(18,37)                1.1123         estimate D2E/DX2                !
 ! R39   R(19,38)                1.1139         estimate D2E/DX2                !
 ! R40   R(19,39)                1.1138         estimate D2E/DX2                !
 ! R41   R(19,40)                1.1123         estimate D2E/DX2                !
 ! A1    A(2,1,6)              122.9549         estimate D2E/DX2                !
 ! A2    A(2,1,21)             122.4373         estimate D2E/DX2                !
 ! A3    A(6,1,21)             114.6077         estimate D2E/DX2                !
 ! A4    A(1,2,3)              114.9644         estimate D2E/DX2                !
 ! A5    A(1,2,8)              122.5152         estimate D2E/DX2                !
 ! A6    A(3,2,8)              122.5204         estimate D2E/DX2                !
 ! A7    A(2,3,4)              122.9585         estimate D2E/DX2                !
 ! A8    A(2,3,22)             122.4315         estimate D2E/DX2                !
 ! A9    A(4,3,22)             114.61           estimate D2E/DX2                !
 ! A10   A(3,4,5)              120.3198         estimate D2E/DX2                !
 ! A11   A(3,4,23)             120.232          estimate D2E/DX2                !
 ! A12   A(5,4,23)             119.4481         estimate D2E/DX2                !
 ! A13   A(4,5,6)              118.4771         estimate D2E/DX2                !
 ! A14   A(4,5,7)              120.7725         estimate D2E/DX2                !
 ! A15   A(6,5,7)              120.7478         estimate D2E/DX2                !
 ! A16   A(1,6,5)              120.3252         estimate D2E/DX2                !
 ! A17   A(1,6,24)             120.2394         estimate D2E/DX2                !
 ! A18   A(5,6,24)             119.4353         estimate D2E/DX2                !
 ! A19   A(5,7,11)             119.7534         estimate D2E/DX2                !
 ! A20   A(5,7,20)             120.1251         estimate D2E/DX2                !
 ! A21   A(11,7,20)            120.1215         estimate D2E/DX2                !
 ! A22   A(2,8,9)              119.907          estimate D2E/DX2                !
 ! A23   A(2,8,10)             119.904          estimate D2E/DX2                !
 ! A24   A(9,8,10)             120.189          estimate D2E/DX2                !
 ! A25   A(8,9,25)             111.4158         estimate D2E/DX2                !
 ! A26   A(8,9,26)             111.4523         estimate D2E/DX2                !
 ! A27   A(8,9,27)             110.9583         estimate D2E/DX2                !
 ! A28   A(25,9,26)            111.3577         estimate D2E/DX2                !
 ! A29   A(25,9,27)            105.6852         estimate D2E/DX2                !
 ! A30   A(26,9,27)            105.6745         estimate D2E/DX2                !
 ! A31   A(8,10,28)            111.4464         estimate D2E/DX2                !
 ! A32   A(8,10,29)            111.4217         estimate D2E/DX2                !
 ! A33   A(8,10,30)            110.9612         estimate D2E/DX2                !
 ! A34   A(28,10,29)           111.3572         estimate D2E/DX2                !
 ! A35   A(28,10,30)           105.6662         estimate D2E/DX2                !
 ! A36   A(29,10,30)           105.691          estimate D2E/DX2                !
 ! A37   A(7,11,12)            120.7525         estimate D2E/DX2                !
 ! A38   A(7,11,16)            120.7755         estimate D2E/DX2                !
 ! A39   A(12,11,16)           118.4698         estimate D2E/DX2                !
 ! A40   A(11,12,13)           120.3308         estimate D2E/DX2                !
 ! A41   A(11,12,31)           119.4317         estimate D2E/DX2                !
 ! A42   A(13,12,31)           120.2374         estimate D2E/DX2                !
 ! A43   A(12,13,14)           122.9522         estimate D2E/DX2                !
 ! A44   A(12,13,32)           114.6093         estimate D2E/DX2                !
 ! A45   A(14,13,32)           122.4385         estimate D2E/DX2                !
 ! A46   A(13,14,15)           114.965          estimate D2E/DX2                !
 ! A47   A(13,14,17)           122.5134         estimate D2E/DX2                !
 ! A48   A(15,14,17)           122.5216         estimate D2E/DX2                !
 ! A49   A(14,15,16)           122.9583         estimate D2E/DX2                !
 ! A50   A(14,15,33)           122.4321         estimate D2E/DX2                !
 ! A51   A(16,15,33)           114.6096         estimate D2E/DX2                !
 ! A52   A(11,16,15)           120.3238         estimate D2E/DX2                !
 ! A53   A(11,16,34)           119.4454         estimate D2E/DX2                !
 ! A54   A(15,16,34)           120.2307         estimate D2E/DX2                !
 ! A55   A(14,17,18)           119.9047         estimate D2E/DX2                !
 ! A56   A(14,17,19)           119.9073         estimate D2E/DX2                !
 ! A57   A(18,17,19)           120.188          estimate D2E/DX2                !
 ! A58   A(17,18,35)           111.427          estimate D2E/DX2                !
 ! A59   A(17,18,36)           111.4405         estimate D2E/DX2                !
 ! A60   A(17,18,37)           110.9592         estimate D2E/DX2                !
 ! A61   A(35,18,36)           111.3589         estimate D2E/DX2                !
 ! A62   A(35,18,37)           105.6772         estimate D2E/DX2                !
 ! A63   A(36,18,37)           105.6809         estimate D2E/DX2                !
 ! A64   A(17,19,38)           111.4309         estimate D2E/DX2                !
 ! A65   A(17,19,39)           111.4335         estimate D2E/DX2                !
 ! A66   A(17,19,40)           110.9589         estimate D2E/DX2                !
 ! A67   A(38,19,39)           111.359          estimate D2E/DX2                !
 ! A68   A(38,19,40)           105.6764         estimate D2E/DX2                !
 ! A69   A(39,19,40)           105.6853         estimate D2E/DX2                !
 ! D1    D(6,1,2,3)             -0.0317         estimate D2E/DX2                !
 ! D2    D(6,1,2,8)           -179.9956         estimate D2E/DX2                !
 ! D3    D(21,1,2,3)           179.9502         estimate D2E/DX2                !
 ! D4    D(21,1,2,8)            -0.0136         estimate D2E/DX2                !
 ! D5    D(2,1,6,5)             -0.0047         estimate D2E/DX2                !
 ! D6    D(2,1,6,24)           179.972          estimate D2E/DX2                !
 ! D7    D(21,1,6,5)          -179.9879         estimate D2E/DX2                !
 ! D8    D(21,1,6,24)           -0.0112         estimate D2E/DX2                !
 ! D9    D(1,2,3,4)              0.0097         estimate D2E/DX2                !
 ! D10   D(1,2,3,22)          -179.8989         estimate D2E/DX2                !
 ! D11   D(8,2,3,4)            179.9736         estimate D2E/DX2                !
 ! D12   D(8,2,3,22)             0.065          estimate D2E/DX2                !
 ! D13   D(1,2,8,9)            179.9455         estimate D2E/DX2                !
 ! D14   D(1,2,8,10)            -0.0436         estimate D2E/DX2                !
 ! D15   D(3,2,8,9)             -0.0157         estimate D2E/DX2                !
 ! D16   D(3,2,8,10)           179.9952         estimate D2E/DX2                !
 ! D17   D(2,3,4,5)              0.0489         estimate D2E/DX2                !
 ! D18   D(2,3,4,23)          -179.8187         estimate D2E/DX2                !
 ! D19   D(22,3,4,5)           179.964          estimate D2E/DX2                !
 ! D20   D(22,3,4,23)            0.0964         estimate D2E/DX2                !
 ! D21   D(3,4,5,6)             -0.0847         estimate D2E/DX2                !
 ! D22   D(3,4,5,7)           -179.5071         estimate D2E/DX2                !
 ! D23   D(23,4,5,6)           179.7839         estimate D2E/DX2                !
 ! D24   D(23,4,5,7)             0.3615         estimate D2E/DX2                !
 ! D25   D(4,5,6,1)              0.0636         estimate D2E/DX2                !
 ! D26   D(4,5,6,24)          -179.9134         estimate D2E/DX2                !
 ! D27   D(7,5,6,1)            179.4861         estimate D2E/DX2                !
 ! D28   D(7,5,6,24)            -0.4909         estimate D2E/DX2                !
 ! D29   D(4,5,7,11)            83.6812         estimate D2E/DX2                !
 ! D30   D(4,5,7,20)           -96.3236         estimate D2E/DX2                !
 ! D31   D(6,5,7,11)           -95.7279         estimate D2E/DX2                !
 ! D32   D(6,5,7,20)            84.2672         estimate D2E/DX2                !
 ! D33   D(5,7,11,12)          -95.7331         estimate D2E/DX2                !
 ! D34   D(5,7,11,16)           83.7142         estimate D2E/DX2                !
 ! D35   D(20,7,11,12)          84.2717         estimate D2E/DX2                !
 ! D36   D(20,7,11,16)         -96.281          estimate D2E/DX2                !
 ! D37   D(2,8,9,25)           -62.6265         estimate D2E/DX2                !
 ! D38   D(2,8,9,26)            62.4337         estimate D2E/DX2                !
 ! D39   D(2,8,9,27)           179.9086         estimate D2E/DX2                !
 ! D40   D(10,8,9,25)          117.3625         estimate D2E/DX2                !
 ! D41   D(10,8,9,26)         -117.5773         estimate D2E/DX2                !
 ! D42   D(10,8,9,27)           -0.1024         estimate D2E/DX2                !
 ! D43   D(2,8,10,28)          -62.4124         estimate D2E/DX2                !
 ! D44   D(2,8,10,29)           62.6473         estimate D2E/DX2                !
 ! D45   D(2,8,10,30)         -179.8749         estimate D2E/DX2                !
 ! D46   D(9,8,10,28)          117.5986         estimate D2E/DX2                !
 ! D47   D(9,8,10,29)         -117.3417         estimate D2E/DX2                !
 ! D48   D(9,8,10,30)            0.136          estimate D2E/DX2                !
 ! D49   D(7,11,12,13)         179.5325         estimate D2E/DX2                !
 ! D50   D(7,11,12,31)          -0.4464         estimate D2E/DX2                !
 ! D51   D(16,11,12,13)          0.0727         estimate D2E/DX2                !
 ! D52   D(16,11,12,31)       -179.9062         estimate D2E/DX2                !
 ! D53   D(7,11,16,15)        -179.5485         estimate D2E/DX2                !
 ! D54   D(7,11,16,34)           0.3345         estimate D2E/DX2                !
 ! D55   D(12,11,16,15)         -0.0888         estimate D2E/DX2                !
 ! D56   D(12,11,16,34)        179.7942         estimate D2E/DX2                !
 ! D57   D(11,12,13,14)         -0.0098         estimate D2E/DX2                !
 ! D58   D(11,12,13,32)       -179.9935         estimate D2E/DX2                !
 ! D59   D(31,12,13,14)        179.9689         estimate D2E/DX2                !
 ! D60   D(31,12,13,32)         -0.0147         estimate D2E/DX2                !
 ! D61   D(12,13,14,15)         -0.0357         estimate D2E/DX2                !
 ! D62   D(12,13,14,17)       -179.9995         estimate D2E/DX2                !
 ! D63   D(32,13,14,15)        179.9467         estimate D2E/DX2                !
 ! D64   D(32,13,14,17)         -0.0171         estimate D2E/DX2                !
 ! D65   D(13,14,15,16)          0.019          estimate D2E/DX2                !
 ! D66   D(13,14,15,33)       -179.9058         estimate D2E/DX2                !
 ! D67   D(17,14,15,16)        179.9828         estimate D2E/DX2                !
 ! D68   D(17,14,15,33)          0.058          estimate D2E/DX2                !
 ! D69   D(13,14,17,18)        179.9546         estimate D2E/DX2                !
 ! D70   D(13,14,17,19)         -0.053          estimate D2E/DX2                !
 ! D71   D(15,14,17,18)         -0.0065         estimate D2E/DX2                !
 ! D72   D(15,14,17,19)        179.9859         estimate D2E/DX2                !
 ! D73   D(14,15,16,11)          0.0434         estimate D2E/DX2                !
 ! D74   D(14,15,16,34)       -179.8387         estimate D2E/DX2                !
 ! D75   D(33,15,16,11)        179.9736         estimate D2E/DX2                !
 ! D76   D(33,15,16,34)          0.0915         estimate D2E/DX2                !
 ! D77   D(14,17,18,35)        -62.5549         estimate D2E/DX2                !
 ! D78   D(14,17,18,36)         62.5065         estimate D2E/DX2                !
 ! D79   D(14,17,18,37)        179.9824         estimate D2E/DX2                !
 ! D80   D(19,17,18,35)        117.4527         estimate D2E/DX2                !
 ! D81   D(19,17,18,36)       -117.4859         estimate D2E/DX2                !
 ! D82   D(19,17,18,37)         -0.01           estimate D2E/DX2                !
 ! D83   D(14,17,19,38)        -62.4922         estimate D2E/DX2                !
 ! D84   D(14,17,19,39)         62.5671         estimate D2E/DX2                !
 ! D85   D(14,17,19,40)       -179.9562         estimate D2E/DX2                !
 ! D86   D(18,17,19,38)        117.5001         estimate D2E/DX2                !
 ! D87   D(18,17,19,39)       -117.4406         estimate D2E/DX2                !
 ! D88   D(18,17,19,40)          0.0361         estimate D2E/DX2                !
 --------------------------------------------------------------------------------
 Trust Radius=3.00D-01 FncErr=1.00D-07 GrdErr=1.00D-06
 Number of steps in this run=    208 maximum allowed number of steps=    240.
 GradGradGradGradGradGradGradGradGradGradGradGradGradGradGradGradGradGrad

                          Input orientation:                          
 ---------------------------------------------------------------------
 Center     Atomic      Atomic             Coordinates (Angstroms)
 Number     Number       Type             X           Y           Z
 ---------------------------------------------------------------------
      1          6           0        2.071748    2.546570    0.006561
      2          6           0        2.837927    1.791705   -0.812769
      3          6           0        2.169941    1.183449   -1.818758
      4          6           0        0.845744    1.312850   -1.999536
      5          6           0        0.120859    2.070575   -1.167242
      6          6           0        0.746757    2.688610   -0.157999
      7          6           0       -1.401331    2.217349   -1.358293
      8          7           0        4.103012    1.661855   -0.647665
      9          6           0        4.889876    0.815576   -1.583589
     10          6           0        4.778892    2.357839    0.479366
     11          6           0       -2.350797    1.147258   -0.785099
     12          6           0       -2.796026    0.145061   -1.553018
     13          6           0       -3.615551   -0.787932   -1.042354
     14          6           0       -4.032282   -0.776309    0.243849
     15          6           0       -3.560889    0.250022    0.987204
     16          6           0       -2.740604    1.192182    0.494883
     17          7           0       -4.815238   -1.671891    0.722848
     18          6           0       -5.236591   -1.603261    2.147348
     19          6           0       -5.299374   -2.775997   -0.147785
     20          1           0       -1.808878    3.083201   -1.901994
     21          1           0        2.488663    3.095432    0.865702
     22          1           0        2.672778    0.538595   -2.556685
     23          1           0        0.345779    0.793443   -2.834460
     24          1           0        0.164556    3.315736    0.538142
     25          1           0        4.562074   -0.248177   -1.543502
     26          1           0        4.850714    1.213202   -2.623276
     27          1           0        5.966634    0.809153   -1.304659
     28          1           0        4.688329    3.464220    0.387809
     29          1           0        4.400603    1.999974    1.463994
     30          1           0        5.870624    2.144966    0.481137
     31          1           0       -2.483567    0.091748   -2.609607
     32          1           0       -3.923649   -1.568102   -1.756188
     33          1           0       -3.820697    0.377845    2.049919
     34          1           0       -2.380685    2.009014    1.143008
     35          1           0       -4.364742   -1.695267    2.834460
     36          1           0       -5.820881   -0.677958    2.354988
     37          1           0       -5.911911   -2.449133    2.403716
     38          1           0       -5.912234   -2.388630   -0.993384
     39          1           0       -4.456435   -3.405909   -0.512906
     40          1           0       -5.966634   -3.464220    0.416450
 ---------------------------------------------------------------------
                    Distance matrix (angstroms):
                    1          2          3          4          5
     1  C    0.000000
     2  C    1.352092   0.000000
     3  C    2.280248   1.352107   0.000000
     4  C    2.655104   2.367807   1.342730   0.000000
     5  C    2.326016   2.754247   2.325984   1.338775   0.000000
     6  C    1.342705   2.367732   2.655011   2.300820   1.338763
     7  C    3.746130   4.295355   3.746326   2.505725   1.541138
     8  N    2.310144   1.282404   2.310215   3.543890   4.036651
     9  C    3.669709   2.399476   2.754756   4.095766   4.948928
    10  C    2.754595   2.399472   3.669767   4.765145   4.948849
    11  C    4.705710   5.228665   4.637546   3.423471   2.666014
    12  C    5.647544   5.916150   5.080324   3.850402   3.516340
    13  C    6.675664   6.953748   6.161255   5.023210   4.706104
    14  C    6.953921   7.410190   6.823677   5.761293   5.229197
    15  C    6.161363   6.823601   6.448808   5.428502   4.638030
    16  C    5.023102   5.761023   5.428302   4.370192   3.423770
    17  N    8.107963   8.539646   7.962754   6.954622   6.476384
    18  C    8.672709   9.245860   8.851693   7.918027   7.292863
    19  C    9.093238   9.355307   8.617426   7.609870   7.342171
    20  H    4.357730   4.944408   4.409874   3.192284   2.299817
    21  H    1.101449   2.153823   3.311131   3.753181   3.284766
    22  H    3.311107   2.153788   1.101462   2.061053   3.284784
    23  H    3.758168   3.360738   2.123987   1.103108   2.112172
    24  H    2.124047   3.360736   3.758084   3.303843   2.112030
    25  H    4.051547   2.769074   2.801360   4.056585   5.024199
    26  H    4.051736   2.768377   2.799050   4.054475   5.022614
    27  H    4.461844   3.316048   3.849581   5.192310   5.981902
    28  H    2.798915   2.768155   4.051312   5.009318   5.022172
    29  H    2.801150   2.769293   4.052040   5.010509   5.024400
    30  H    3.849411   3.316057   4.461960   5.665296   5.981846
    31  H    5.798395   5.868286   4.844831   3.598276   3.574802
    32  H    7.482152   7.609024   6.686313   5.577294   5.472191
    33  H    6.602998   7.384528   7.176587   6.248839   5.362026
    34  H    4.626515   5.577293   5.491977   4.557419   3.405696
    35  H    8.210883   8.794299   8.523000   7.717866   7.093363
    36  H    8.843432   9.545097   9.205337   8.207867   7.434031
    37  H    9.718138  10.241589   9.815359   8.899834   8.341092
    38  H    9.439283   9.699131   8.874826   7.770686   7.504195
    39  H    8.849804   8.961742   8.165557   7.251886   7.167402
    40  H   10.045556  10.327440   9.633319   8.664057   8.378521
                    6          7          8          9         10
     6  C    0.000000
     7  C    2.505409   0.000000
     8  N    3.543790   5.577756   0.000000
     9  C    4.765081   6.449419   1.487043   0.000000
    10  C    4.095578   6.449177   1.487080   2.578115   0.000000
    11  C    3.516228   1.541146   6.475751   7.292115   7.341447
    12  C    4.578977   2.505488   7.121591   7.715155   8.149009
    13  C    5.647846   3.746238   8.107617   8.672166   9.092754
    14  C    5.916617   4.295434   8.539464   9.245460   9.354953
    15  C    5.080749   3.746388   7.962503   8.851229   8.617003
    16  C    3.850615   2.505770   6.954214   7.917456   7.609324
    17  N    7.122194   5.577822   9.619114  10.280875  10.408907
    18  C    7.715908   6.449481  10.281112  11.059656  10.898733
    19  C    8.149708   6.449308  10.409096  10.898704  11.327888
    20  H    3.119053   1.100638   6.208382   7.079323   7.042424
    21  H    2.060996   4.566096   2.636578   4.118567   2.436893
    22  H    3.753108   4.566478   2.636596   2.437039   4.118613
    23  H    3.303920   2.694248   4.433172   4.713172   5.751632
    24  H    1.103113   2.693496   4.433159   5.751625   4.713079
    25  H    5.010088   6.455642   2.159047   1.113836   3.306104
    26  H    5.009679   6.457287   2.159488   1.113817   3.307830
    27  H    5.665183   7.501520   2.152168   1.112318   2.644221
    28  H    4.054068   6.456587   2.159473   3.307922   1.113851
    29  H    4.056559   6.455617   2.159164   3.306047   1.113850
    30  H    5.192115   7.501338   2.152218   2.644284   1.112293
    31  H    4.815503   2.693548   7.049644   7.479592   8.210982
    32  H    6.518167   4.566185   8.722886   9.131809   9.805352
    33  H    5.574601   4.566510   8.468223   9.448178   8.963255
    34  H    3.454760   2.694261   6.735381   7.856188   7.198725
    35  H    7.368895   6.455195   9.751837  10.558004  10.275222
    36  H    7.796329   6.457839  10.628937  11.509272  11.184329
    37  H    8.791851   7.501606  11.247659  11.968105  11.878694
    38  H    8.415367   6.457279  10.808844  11.282768  11.789747
    39  H    8.021367   6.455182   9.948092  10.311199  10.931453
    40  H    9.124523   7.501462  11.349306  11.839790  12.221565
                   11         12         13         14         15
    11  C    0.000000
    12  C    1.338778   0.000000
    13  C    2.326100   1.342712   0.000000
    14  C    2.754312   2.367696   1.352079   0.000000
    15  C    2.326029   2.654950   2.280229   1.352089   0.000000
    16  C    1.338776   2.300746   2.655086   2.367785   1.342726
    17  N    4.036703   3.543741   2.310102   1.282391   2.310200
    18  C    4.948980   4.765049   3.669704   2.399483   2.754736
    19  C    4.948960   4.095609   2.754617   2.399511   3.669785
    20  H    2.299784   3.119120   4.357605   4.944086   4.409525
    21  H    5.471828   6.517886   7.482154   7.609192   6.686419
    22  H    5.361464   5.574050   6.602723   7.384429   7.176422
    23  H    3.405376   3.454480   4.626503   5.577412   5.492038
    24  H    3.574950   4.815722   5.798902   5.868977   4.845534
    25  H    7.092968   7.368607   8.210727   8.794117   8.522629
    26  H    7.432698   7.794807   8.842030   9.543908   9.204257
    27  H    8.340499   8.791297   9.717909  10.241576   9.815241
    28  H    7.502888   8.414226   9.438251   9.698034   8.873553
    29  H    7.167074   8.020881   8.849459   8.961588   8.165477
    30  H    8.377979   9.124047  10.045418  10.327522   9.633294
    31  H    2.112003   1.103111   2.124031   3.360692   3.758021
    32  H    3.284822   2.061004   1.101430   2.153807   3.311098
    33  H    3.284803   3.753038   3.311083   2.153771   1.101455
    34  H    2.112135   3.303844   3.758139   3.360697   2.123961
    35  H    5.023657   5.009755   4.051448   2.768805   2.800479
    36  H    5.023250   5.009952   4.051852   2.768694   2.799919
    37  H    5.981981   5.665185   4.461867   3.316078   3.849578
    38  H    5.022919   4.055063   2.799890   2.768491   4.051424
    39  H    5.023856   4.055635   2.800215   2.769003   4.051933
    40  H    5.981950   5.192155   3.849444   3.316078   4.461946
                   16         17         18         19         20
    16  C    0.000000
    17  N    3.543866   0.000000
    18  C    4.095741   1.487094   0.000000
    19  C    4.765162   1.487091   2.578156   0.000000
    20  H    3.192035   6.207970   7.078793   7.042089   0.000000
    21  H    5.577195   8.723230   9.132354   9.805833   5.111668
    22  H    6.248516   8.468292   9.448470   8.963511   5.195082
    23  H    4.557332   6.735608   7.856555   7.199089   3.279486
    24  H    3.598793   7.050453   7.480539   8.211835   3.146868
    25  H    7.717432   9.751784  10.558052  10.275508   7.198307
    26  H    8.206794  10.627838  11.508477  11.183293   6.954661
    27  H    8.899498  11.247894  11.968640  11.879166   8.123219
    28  H    7.769341  10.807852  11.281816  11.789036   6.899425
    29  H    7.251796   9.948046  10.311439  10.931481   7.145692
    30  H    8.663789  11.349646  11.840426  12.222122   8.095329
    31  H    3.303768   4.433099   5.751593   4.713099   3.147175
    32  H    3.753143   2.636536   4.118573   2.436922   5.111569
    33  H    2.061039   2.636598   2.437012   4.118629   5.194611
    34  H    1.103097   4.433130   4.713112   5.751628   3.279158
    35  H    4.055713   2.159259   1.113871   3.306856   7.197235
    36  H    4.055308   2.159422   1.113865   3.307206   6.954450
    37  H    5.192303   2.152235   1.112331   2.644277   8.122853
    38  H    5.009630   2.159298   3.307188   1.113862   6.899568
    39  H    5.010205   2.159316   3.306831   1.113844   7.144765
    40  H    5.665289   2.152216   2.644265   1.112316   8.095112
                   21         22         23         24         25
    21  H    0.000000
    22  H    4.275985   0.000000
    23  H    4.856161   2.357336   0.000000
    24  H    2.357393   4.856093   4.215359   0.000000
    25  H    4.613352   2.283635   4.530860   6.030993   0.000000
    26  H    4.614655   2.280994   4.529375   6.031193   1.839797
    27  H    4.694020   3.534156   5.825337   6.583539   1.774199
    28  H    2.280990   4.614301   6.031070   4.528705   4.186621
    29  H    2.283308   4.613769   6.031088   4.531283   3.758362
    30  H    3.533969   4.694146   6.583594   5.825218   3.396851
    31  H    6.769266   5.175941   2.923719   5.226373   7.133946
    32  H    8.351084   6.970783   4.996757   6.769730   8.590398
    33  H    6.971060   7.963156   6.433460   5.176767   9.141960
    34  H    4.996774   6.433300   4.973075   2.924318   7.779084
    35  H    8.590458   9.142279   7.779418   7.134267  10.047321
    36  H    9.246890   9.886697   8.192868   7.421319  11.099040
    37  H   10.182207  10.355143   8.781314   8.581231  11.407414
    38  H   10.203245   9.204074   7.257953   8.474240  10.704919
    39  H    9.612616   8.400108   6.788625   8.224279   9.610770
    40  H   10.710878   9.975044   8.279050   9.141887  11.182041
                   26         27         28         29         30
    26  H    0.000000
    27  H    1.774059   0.000000
    28  H    3.762989   3.398219   0.000000
    29  H    4.186572   3.396461   1.839831   0.000000
    30  H    3.397908   2.232192   1.773968   1.774258   0.000000
    31  H    7.419537   8.580411   8.473144   8.223585   9.141166
    32  H    9.245374  10.181990  10.202311   9.612175  10.710755
    33  H    9.885846  10.355244   9.202817   8.400261   9.975244
    34  H    8.192151   8.781143   7.256646   6.788887   8.278928
    35  H   11.098230  11.407969  10.703481   9.610632  11.182497
    36  H   11.926548  12.431815  11.466077  10.603958  12.172572
    37  H   12.430505  12.863448  12.304337  11.270562  12.791802
    38  H   11.466071  12.305698  12.187513  11.474021  12.710761
    39  H   10.602494  11.270936  11.473302  10.563088  11.766413
    40  H   12.170999  12.791670  12.709537  11.765814  13.099154
                   31         32         33         34         35
    31  H    0.000000
    32  H    2.357385   0.000000
    33  H    4.856022   4.275951   0.000000
    34  H    4.215283   4.856113   2.357294   0.000000
    35  H    6.030763   4.613543   2.282385   4.529811   0.000000
    36  H    6.031361   4.614500   2.282219   4.530305   1.839878
    37  H    6.583542   4.694060   3.534141   5.825291   1.774144
    38  H    4.529924   2.282456   4.614066   6.031192   4.186630
    39  H    4.530118   2.281917   4.614004   6.030935   3.760261
    40  H    5.825263   3.534036   4.694117   6.583556   3.397356
                   36         37         38         39         40
    36  H    0.000000
    37  H    1.774182   0.000000
    38  H    3.761162   3.397639   0.000000
    39  H    4.186675   3.397133   1.839855   0.000000
    40  H    3.397415   2.232179   1.774115   1.774205   0.000000
 Stoichiometry    C17H21N2(1+)
 Framework group  C1[X(C17H21N2)]
 Deg. of freedom   114
 Full point group                 C1      NOp   1
 Largest Abelian subgroup         C1      NOp   1
 Largest concise Abelian subgroup C1      NOp   1
                         Standard orientation:                         
 ---------------------------------------------------------------------
 Center     Atomic      Atomic             Coordinates (Angstroms)
 Number     Number       Type             X           Y           Z
 ---------------------------------------------------------------------
      1          6           0        3.145051   -1.118236    0.286108
      2          6           0        3.705073    0.018228   -0.186098
      3          6           0        3.012854    1.148823    0.079955
      4          6           0        1.855717    1.153679    0.761081
      5          6           0        1.333173    0.007264    1.213848
      6          6           0        1.989345   -1.133787    0.969451
      7          6           0        0.000013   -0.000529    1.986978
      8          7           0        4.809435    0.023286   -0.837956
      9          6           0        5.372855    1.307691   -1.332080
     10          6           0        5.522841   -1.255369   -1.097764
     11          6           0       -1.332799   -0.007822    1.213226
     12          6           0       -1.988997    1.133331    0.969300
     13          6           0       -3.144871    1.118142    0.286218
     14          6           0       -3.705028   -0.018112   -0.186295
     15          6           0       -3.012757   -1.148812    0.079077
     16          6           0       -1.855518   -1.153985    0.760020
     17          7           0       -4.809568   -0.022855   -0.837827
     18          6           0       -5.373248   -1.307125   -1.332159
     19          6           0       -5.523185    1.255878   -1.096738
     20          1           0       -0.000274   -0.000965    3.087616
     21          1           0        3.604156   -2.108551    0.138834
     22          1           0        3.355935    2.142612   -0.248522
     23          1           0        1.326568    2.102916    0.950281
     24          1           0        1.572301   -2.087742    1.334007
     25          1           0        4.692203    1.794275   -2.067322
     26          1           0        5.619204    1.994878   -0.490845
     27          1           0        6.329998    1.140195   -1.873441
     28          1           0        5.837736   -1.746151   -0.148745
     29          1           0        4.911078   -1.942155   -1.726042
     30          1           0        6.460155   -1.078896   -1.670037
     31          1           0       -1.571806    2.087131    1.334090
     32          1           0       -3.603960    2.108519    0.139454
     33          1           0       -3.355990   -2.142469   -0.249616
     34          1           0       -1.326510   -2.103346    0.948932
     35          1           0       -4.692374   -1.794371   -2.066808
     36          1           0       -5.620560   -1.993886   -0.490796
     37          1           0       -6.329872   -1.139276   -1.874357
     38          1           0       -5.838998    1.745178   -0.147246
     39          1           0       -4.911255    1.943793   -1.723606
     40          1           0       -6.459913    1.079732   -1.670115
 ---------------------------------------------------------------------
 Rotational constants (GHZ):      0.9562836      0.1336504      0.1330693
 Standard basis: 6-311++G(d,p) (5D, 7F)
 There are   584 symmetry adapted cartesian basis functions of A   symmetry.
 There are   565 symmetry adapted basis functions of A   symmetry.
   565 basis functions,   873 primitive gaussians,   584 cartesian basis functions
    68 alpha electrons       68 beta electrons
       nuclear repulsion energy      1322.2624328289 Hartrees.
 NAtoms=   40 NActive=   40 NUniq=   40 SFac= 1.00D+00 NAtFMM=   60 NAOKFM=F Big=F
 Integral buffers will be    131072 words long.
 Raffenetti 2 integral format.
 Two-electron integral symmetry is turned on.
 One-electron integrals computed using PRISM.
 NBasis=   565 RedAO= T EigKep=  1.57D-06  NBF=   565
 NBsUse=   560 1.00D-06 EigRej=  8.82D-07 NBFU=   560
 ExpMin= 3.60D-02 ExpMax= 6.29D+03 ExpMxC= 9.49D+02 IAcc=3 IRadAn=         5 AccDes= 0.00D+00
 Harris functional with IExCor=  402 and IRadAn=       5 diagonalized for initial guess.
 HarFok:  IExCor=  402 AccDes= 0.00D+00 IRadAn=         5 IDoV= 1 UseB2=F ITyADJ=14
 ICtDFT=  3500011 ScaDFX=  1.000000  1.000000  1.000000  1.000000
 FoFCou: FMM=F IPFlag=           0 FMFlag=      100000 FMFlg1=           0
         NFxFlg=           0 DoJE=T BraDBF=F KetDBF=T FulRan=T
         wScrn=  0.000000 ICntrl=     500 IOpCl=  0 I1Cent=   200000004 NGrid=           0
         NMat0=    1 NMatS0=      1 NMatT0=    0 NMatD0=    1 NMtDS0=    0 NMtDT0=    0
 Petite list used in FoFCou.
 Requested convergence on RMS density matrix=1.00D-08 within 128 cycles.
 Requested convergence on MAX density matrix=1.00D-06.
 Requested convergence on             energy=1.00D-06.
 No special actions if energy rises.
 SCF Done:  E(RB3LYP) =  -769.760430938     A.U. after   17 cycles
            NFock= 17  Conv=0.85D-08     -V/T= 2.0028

 **********************************************************************

            Population analysis using the SCF density.

 **********************************************************************

 Orbital symmetries:
       Occupied  (A) (A) (A) (A) (A) (A) (A) (A) (A) (A) (A) (A)
                 (A) (A) (A) (A) (A) (A) (A) (A) (A) (A) (A) (A)
                 (A) (A) (A) (A) (A) (A) (A) (A) (A) (A) (A) (A)
                 (A) (A) (A) (A) (A) (A) (A) (A) (A) (A) (A) (A)
                 (A) (A) (A) (A) (A) (A) (A) (A) (A) (A) (A) (A)
                 (A) (A) (A) (A) (A) (A) (A) (A)
       Virtual   (A) (A) (A) (A) (A) (A) (A) (A) (A) (A) (A) (A)
                 (A) (A) (A) (A) (A) (A) (A) (A) (A) (A) (A) (A)
                 (A) (A) (A) (A) (A) (A) (A) (A) (A) (A) (A) (A)
                 (A) (A) (A) (A) (A) (A) (A) (A) (A) (A) (A) (A)
                 (A) (A) (A) (A) (A) (A) (A) (A) (A) (A) (A) (A)
                 (A) (A) (A) (A) (A) (A) (A) (A) (A) (A) (A) (A)
                 (A) (A) (A) (A) (A) (A) (A) (A) (A) (A) (A) (A)
                 (A) (A) (A) (A) (A) (A) (A) (A) (A) (A) (A) (A)
                 (A) (A) (A) (A) (A) (A) (A) (A) (A) (A) (A) (A)
                 (A) (A) (A) (A) (A) (A) (A) (A) (A) (A) (A) (A)
                 (A) (A) (A) (A) (A) (A) (A) (A) (A) (A) (A) (A)
                 (A) (A) (A) (A) (A) (A) (A) (A) (A) (A) (A) (A)
                 (A) (A) (A) (A) (A) (A) (A) (A) (A) (A) (A) (A)
                 (A) (A) (A) (A) (A) (A) (A) (A) (A) (A) (A) (A)
                 (A) (A) (A) (A) (A) (A) (A) (A) (A) (A) (A) (A)
                 (A) (A) (A) (A) (A) (A) (A) (A) (A) (A) (A) (A)
                 (A) (A) (A) (A) (A) (A) (A) (A) (A) (A) (A) (A)
                 (A) (A) (A) (A) (A) (A) (A) (A) (A) (A) (A) (A)
                 (A) (A) (A) (A) (A) (A) (A) (A) (A) (A) (A) (A)
                 (A) (A) (A) (A) (A) (A) (A) (A) (A) (A) (A) (A)
                 (A) (A) (A) (A) (A) (A) (A) (A) (A) (A) (A) (A)
                 (A) (A) (A) (A) (A) (A) (A) (A) (A) (A) (A) (A)
                 (A) (A) (A) (A) (A) (A) (A) (A) (A) (A) (A) (A)
                 (A) (A) (A) (A) (A) (A) (A) (A) (A) (A) (A) (A)
                 (A) (A) (A) (A) (A) (A) (A) (A) (A) (A) (A) (A)
                 (A) (A) (A) (A) (A) (A) (A) (A) (A) (A) (A) (A)
                 (A) (A) (A) (A) (A) (A) (A) (A) (A) (A) (A) (A)
                 (A) (A) (A) (A) (A) (A) (A) (A) (A) (A) (A) (A)
                 (A) (A) (A) (A) (A) (A) (A) (A) (A) (A) (A) (A)
                 (A) (A) (A) (A) (A) (A) (A) (A) (A) (A) (A) (A)
                 (A) (A) (A) (A) (A) (A) (A) (A) (A) (A) (A) (A)
                 (A) (A) (A) (A) (A) (A) (A) (A) (A) (A) (A) (A)
                 (A) (A) (A) (A) (A) (A) (A) (A) (A) (A) (A) (A)
                 (A) (A) (A) (A) (A) (A) (A) (A) (A) (A) (A) (A)
                 (A) (A) (A) (A) (A) (A) (A) (A) (A) (A) (A) (A)
                 (A) (A) (A) (A) (A) (A) (A) (A) (A) (A) (A) (A)
                 (A) (A) (A) (A) (A) (A) (A) (A) (A) (A) (A) (A)
                 (A) (A) (A) (A) (A) (A) (A) (A) (A) (A) (A) (A)
                 (A) (A) (A) (A) (A) (A) (A) (A) (A) (A) (A) (A)
                 (A) (A) (A) (A) (A) (A) (A) (A) (A) (A) (A) (A)
                 (A) (A) (A) (A) (A) (A) (A) (A) (A) (A) (A) (A)
 The electronic state is 1-A.
 Alpha  occ. eigenvalues --  -14.46778 -14.46774 -10.39153 -10.32390 -10.32386
 Alpha  occ. eigenvalues --  -10.32008 -10.32007 -10.32000 -10.31998 -10.30593
 Alpha  occ. eigenvalues --  -10.30591 -10.29291 -10.29288 -10.29107 -10.29104
 Alpha  occ. eigenvalues --  -10.27980 -10.27977 -10.27976 -10.27972  -1.09946
 Alpha  occ. eigenvalues --   -1.09938  -1.01087  -1.00023  -0.91860  -0.88735
 Alpha  occ. eigenvalues --   -0.88648  -0.88610  -0.83812  -0.83750  -0.83445
 Alpha  occ. eigenvalues --   -0.79812  -0.76270  -0.74171  -0.73518  -0.70643
 Alpha  occ. eigenvalues --   -0.69939  -0.65871  -0.65017  -0.62979  -0.62323
 Alpha  occ. eigenvalues --   -0.60476  -0.60186  -0.58953  -0.58915  -0.56770
 Alpha  occ. eigenvalues --   -0.56302  -0.54960  -0.54741  -0.54426  -0.53992
 Alpha  occ. eigenvalues --   -0.52400  -0.52397  -0.52197  -0.51211  -0.51205
 Alpha  occ. eigenvalues --   -0.51137  -0.50067  -0.49193  -0.49062  -0.48436
 Alpha  occ. eigenvalues --   -0.45747  -0.45347  -0.43356  -0.42875  -0.38619
 Alpha  occ. eigenvalues --   -0.38342  -0.32176  -0.32162
 Alpha virt. eigenvalues --   -0.27755  -0.12971  -0.11919  -0.11525  -0.10604
 Alpha virt. eigenvalues --   -0.09939  -0.09489  -0.08874  -0.08702  -0.07969
 Alpha virt. eigenvalues --   -0.07635  -0.06900  -0.06689  -0.06486  -0.05941
 Alpha virt. eigenvalues --   -0.05738  -0.05453  -0.05093  -0.04449  -0.04386
 Alpha virt. eigenvalues --   -0.04228  -0.03587  -0.03110  -0.02776  -0.02469
 Alpha virt. eigenvalues --   -0.01870  -0.01397  -0.01034  -0.00806  -0.00794
 Alpha virt. eigenvalues --    0.00061   0.00068   0.00260   0.01039   0.01231
 Alpha virt. eigenvalues --    0.01615   0.01789   0.01959   0.02015   0.02205
 Alpha virt. eigenvalues --    0.02722   0.02725   0.02886   0.02887   0.03388
 Alpha virt. eigenvalues --    0.03882   0.04159   0.04379   0.04715   0.04716
 Alpha virt. eigenvalues --    0.04876   0.05481   0.05534   0.05554   0.05769
 Alpha virt. eigenvalues --    0.05878   0.06672   0.06888   0.07013   0.07255
 Alpha virt. eigenvalues --    0.07412   0.07417   0.07770   0.07818   0.07949
 Alpha virt. eigenvalues --    0.08024   0.08412   0.08470   0.08715   0.09075
 Alpha virt. eigenvalues --    0.09391   0.09407   0.09743   0.09882   0.10114
 Alpha virt. eigenvalues --    0.10580   0.10918   0.11239   0.11359   0.11524
 Alpha virt. eigenvalues --    0.12400   0.12840   0.13239   0.13662   0.13936
 Alpha virt. eigenvalues --    0.13938   0.14602   0.14738   0.15000   0.15365
 Alpha virt. eigenvalues --    0.15385   0.16348   0.16786   0.16849   0.17360
 Alpha virt. eigenvalues --    0.17418   0.17653   0.18034   0.18316   0.18744
 Alpha virt. eigenvalues --    0.18783   0.19058   0.19648   0.19697   0.19780
 Alpha virt. eigenvalues --    0.20573   0.20853   0.21185   0.21218   0.21957
 Alpha virt. eigenvalues --    0.22051   0.22189   0.22373   0.23014   0.23088
 Alpha virt. eigenvalues --    0.23410   0.23535   0.23640   0.24122   0.24674
 Alpha virt. eigenvalues --    0.24854   0.25168   0.25838   0.26005   0.26027
 Alpha virt. eigenvalues --    0.26691   0.28034   0.28702   0.29366   0.29736
 Alpha virt. eigenvalues --    0.31469   0.31959   0.32273   0.32662   0.35387
 Alpha virt. eigenvalues --    0.36730   0.37023   0.37231   0.38577   0.39571
 Alpha virt. eigenvalues --    0.39819   0.40478   0.42218   0.43603   0.43840
 Alpha virt. eigenvalues --    0.44387   0.44520   0.45708   0.45877   0.46201
 Alpha virt. eigenvalues --    0.47415   0.48167   0.48535   0.48789   0.49543
 Alpha virt. eigenvalues --    0.49824   0.50356   0.50366   0.50629   0.50726
 Alpha virt. eigenvalues --    0.51311   0.51437   0.51867   0.52816   0.53504
 Alpha virt. eigenvalues --    0.54333   0.55044   0.55479   0.55784   0.56169
 Alpha virt. eigenvalues --    0.56678   0.56997   0.57368   0.57387   0.57641
 Alpha virt. eigenvalues --    0.58117   0.58769   0.59172   0.59647   0.59834
 Alpha virt. eigenvalues --    0.60656   0.60662   0.61768   0.62130   0.62196
 Alpha virt. eigenvalues --    0.62606   0.63460   0.63609   0.64333   0.65504
 Alpha virt. eigenvalues --    0.65861   0.66760   0.67591   0.68241   0.68439
 Alpha virt. eigenvalues --    0.69073   0.69818   0.70793   0.71438   0.72220
 Alpha virt. eigenvalues --    0.72492   0.73240   0.73315   0.75241   0.75730
 Alpha virt. eigenvalues --    0.77561   0.77882   0.78631   0.78838   0.78972
 Alpha virt. eigenvalues --    0.79145   0.79489   0.80799   0.80813   0.81177
 Alpha virt. eigenvalues --    0.81576   0.83240   0.84484   0.85630   0.86588
 Alpha virt. eigenvalues --    0.86935   0.87279   0.87412   0.88368   0.89530
 Alpha virt. eigenvalues --    0.91113   0.91942   0.92047   0.92576   0.93357
 Alpha virt. eigenvalues --    0.94296   0.95243   0.97359   0.97812   0.99010
 Alpha virt. eigenvalues --    0.99712   1.00701   1.02158   1.02880   1.04667
 Alpha virt. eigenvalues --    1.06178   1.07042   1.08902   1.11041   1.12417
 Alpha virt. eigenvalues --    1.17294   1.18725   1.21045   1.22232   1.22426
 Alpha virt. eigenvalues --    1.22735   1.27522   1.28135   1.29854   1.31419
 Alpha virt. eigenvalues --    1.31550   1.32523   1.32886   1.33395   1.33474
 Alpha virt. eigenvalues --    1.33714   1.35408   1.41943   1.42218   1.42463
 Alpha virt. eigenvalues --    1.42683   1.43106   1.43477   1.44408   1.45348
 Alpha virt. eigenvalues --    1.45635   1.46063   1.46163   1.46787   1.47105
 Alpha virt. eigenvalues --    1.47631   1.48544   1.49100   1.49446   1.50149
 Alpha virt. eigenvalues --    1.50683   1.51214   1.51418   1.52206   1.52440
 Alpha virt. eigenvalues --    1.53511   1.54275   1.54817   1.54909   1.57177
 Alpha virt. eigenvalues --    1.59657   1.60772   1.61279   1.61639   1.62342
 Alpha virt. eigenvalues --    1.63382   1.63820   1.64890   1.65276   1.65485
 Alpha virt. eigenvalues --    1.66009   1.67325   1.67629   1.68737   1.70271
 Alpha virt. eigenvalues --    1.72436   1.72621   1.72941   1.74959   1.75828
 Alpha virt. eigenvalues --    1.76263   1.77011   1.78450   1.79559   1.81577
 Alpha virt. eigenvalues --    1.81940   1.83774   1.84639   1.85152   1.86668
 Alpha virt. eigenvalues --    1.87216   1.88909   1.89078   1.89118   1.89993
 Alpha virt. eigenvalues --    1.90157   1.90687   1.92367   1.92786   1.94237
 Alpha virt. eigenvalues --    1.94313   1.96264   1.97027   1.98194   1.98255
 Alpha virt. eigenvalues --    1.99554   2.01331   2.02298   2.05974   2.06515
 Alpha virt. eigenvalues --    2.06679   2.07308   2.08339   2.08512   2.09435
 Alpha virt. eigenvalues --    2.09554   2.09984   2.10109   2.15513   2.18448
 Alpha virt. eigenvalues --    2.18720   2.23557   2.27324   2.27510   2.29139
 Alpha virt. eigenvalues --    2.29466   2.30711   2.31698   2.31797   2.32371
 Alpha virt. eigenvalues --    2.33236   2.33599   2.33661   2.33957   2.35031
 Alpha virt. eigenvalues --    2.36713   2.37519   2.37686   2.37980   2.38091
 Alpha virt. eigenvalues --    2.39004   2.41835   2.44167   2.44676   2.45469
 Alpha virt. eigenvalues --    2.50429   2.50560   2.53560   2.54683   2.55261
 Alpha virt. eigenvalues --    2.55273   2.55440   2.55687   2.56274   2.58336
 Alpha virt. eigenvalues --    2.58501   2.58927   2.62048   2.62433   2.63565
 Alpha virt. eigenvalues --    2.63923   2.64498   2.65164   2.65373   2.65910
 Alpha virt. eigenvalues --    2.66475   2.66657   2.67241   2.67894   2.70080
 Alpha virt. eigenvalues --    2.71350   2.72159   2.72440   2.74352   2.74446
 Alpha virt. eigenvalues --    2.75838   2.79552   2.80107   2.81072   2.83142
 Alpha virt. eigenvalues --    2.84320   2.85165   2.85271   2.87534   2.87836
 Alpha virt. eigenvalues --    2.91369   2.91407   2.91910   2.92689   2.94503
 Alpha virt. eigenvalues --    3.00587   3.03068   3.04190   3.06439   3.07569
 Alpha virt. eigenvalues --    3.09946   3.10583   3.10699   3.21060   3.22801
 Alpha virt. eigenvalues --    3.23519   3.34184   3.34921   3.35135   3.35838
 Alpha virt. eigenvalues --    3.42651   3.44240   3.44602   3.45777   3.55103
 Alpha virt. eigenvalues --    3.56173   3.57600   3.57728   3.61094   3.61353
 Alpha virt. eigenvalues --    3.61390   3.62961   3.63912   3.64309   3.64738
 Alpha virt. eigenvalues --    3.64860   3.66345   3.66386   3.67216   3.67258
 Alpha virt. eigenvalues --    3.86433   3.86499   3.88074   3.88411   3.88450
 Alpha virt. eigenvalues --    3.93285   4.00655   4.03036   4.03337   4.07175
 Alpha virt. eigenvalues --    4.12910   4.16254   4.74802   4.74826   4.80934
 Alpha virt. eigenvalues --    4.81456   4.96536   4.96670  23.48378  23.52974
 Alpha virt. eigenvalues --   23.59538  23.76410  23.76601  23.81306  23.81422
 Alpha virt. eigenvalues --   23.94594  23.94684  23.99758  24.00131  24.15495
 Alpha virt. eigenvalues --   24.15931  24.16694  24.17093  24.28595  24.29272
 Alpha virt. eigenvalues --   35.58691  35.59212
          Condensed to atoms (all electrons):
               1          2          3          4          5          6
     1  C    6.905908  -0.210297  -0.752908  -0.275711  -0.652419   1.368178
     2  C   -0.210297  10.410874  -0.087858  -2.068500   0.730513  -1.699722
     3  C   -0.752908  -0.087858   7.285455   1.520142  -0.719643  -0.634213
     4  C   -0.275711  -2.068500   1.520142   8.469061  -0.908368  -1.054114
     5  C   -0.652419   0.730513  -0.719643  -0.908368  13.016384   0.250136
     6  C    1.368178  -1.699722  -0.634213  -1.054114   0.250136   8.279207
     7  C   -0.343852  -1.106900  -0.427622  -0.024312  -4.204559  -0.866059
     8  N   -0.241001   0.186005  -0.232933   0.033506  -0.063430   0.033899
     9  C   -0.065532   0.138529  -0.062026  -0.161886  -0.051140   0.003596
    10  C   -0.014576   0.109731  -0.102654  -0.027303  -0.050608  -0.125283
    11  C    0.025884   0.123583   0.054483   0.455289  -2.464802   0.070770
    12  C   -0.091629   0.035909   0.136601   0.244366   0.069385  -0.078749
    13  C   -0.066195   0.033441   0.130805   0.086616   0.025676  -0.091564
    14  C    0.033349  -0.020483   0.007699   0.028536   0.123234   0.036113
    15  C    0.130643   0.007733  -0.066850  -0.125031   0.055385   0.136482
    16  C    0.086738   0.028663  -0.125101  -0.298794   0.455269   0.244039
    17  N   -0.000382   0.000095  -0.000090  -0.000166   0.006897  -0.001094
    18  C    0.001630  -0.000189  -0.001276  -0.001754  -0.005451   0.002606
    19  C   -0.000951  -0.000002   0.001557   0.003208  -0.008218  -0.002040
    20  H   -0.015442  -0.020026  -0.017484  -0.028522  -0.161919  -0.032606
    21  H    0.451028  -0.053727  -0.033161  -0.014855   0.000222   0.005803
    22  H   -0.010072  -0.069454   0.442278   0.012019  -0.019337  -0.004484
    23  H    0.009665   0.087128  -0.025519   0.208629   0.027074   0.031208
    24  H   -0.046453   0.075886   0.034886   0.060351   0.001010   0.206565
    25  H   -0.003850   0.004502   0.012132  -0.014569   0.000949  -0.002847
    26  H   -0.008787  -0.003176   0.016313  -0.004810  -0.001698  -0.005259
    27  H    0.010828  -0.014095   0.015168  -0.001161   0.000869   0.006210
    28  H    0.047162  -0.028955  -0.024789  -0.008836  -0.003114   0.010205
    29  H   -0.019628   0.023927   0.016845   0.002084   0.000576  -0.024635
    30  H    0.024565  -0.018706   0.006884   0.003638   0.002833  -0.000870
    31  H    0.003273  -0.005991  -0.009550  -0.014622  -0.056286   0.016370
    32  H   -0.001807   0.002270   0.004283   0.009646  -0.016716  -0.005241
    33  H    0.000092   0.002153  -0.001925  -0.008566  -0.006529   0.005725
    34  H    0.009004  -0.005294   0.003687   0.022146  -0.076440   0.000769
    35  H    0.000009  -0.000022   0.000102   0.000075   0.001387   0.000207
    36  H   -0.000086  -0.000020   0.000056   0.000440  -0.000347  -0.000621
    37  H    0.000112  -0.000007  -0.000089  -0.000176  -0.000375   0.000264
    38  H    0.000068  -0.000042  -0.000128  -0.000381   0.000461   0.000299
    39  H    0.000063   0.000014  -0.000109  -0.000507   0.001554   0.000088
    40  H   -0.000073   0.000008   0.000120   0.000263  -0.000626  -0.000179
               7          8          9         10         11         12
     1  C   -0.343852  -0.241001  -0.065532  -0.014576   0.025884  -0.091629
     2  C   -1.106900   0.186005   0.138529   0.109731   0.123583   0.035909
     3  C   -0.427622  -0.232933  -0.062026  -0.102654   0.054483   0.136601
     4  C   -0.024312   0.033506  -0.161886  -0.027303   0.455289   0.244366
     5  C   -4.204559  -0.063430  -0.051140  -0.050608  -2.464802   0.069385
     6  C   -0.866059   0.033899   0.003596  -0.125283   0.070770  -0.078749
     7  C   19.277307  -0.007940  -0.030990  -0.023258  -4.217780  -0.866209
     8  N   -0.007940   6.974537   0.316723   0.312542   0.006897  -0.001094
     9  C   -0.030990   0.316723   5.168493  -0.073813  -0.005461   0.002619
    10  C   -0.023258   0.312542  -0.073813   5.172902  -0.008198  -0.002051
    11  C   -4.217780   0.006897  -0.005461  -0.008198  13.029041   0.250038
    12  C   -0.866209  -0.001094   0.002619  -0.002051   0.250038   8.280399
    13  C   -0.345024  -0.000382   0.001636  -0.000953  -0.651782   1.369220
    14  C   -1.107018   0.000095  -0.000191  -0.000003   0.730627  -1.699237
    15  C   -0.428550  -0.000088  -0.001278   0.001559  -0.720001  -0.634979
    16  C   -0.022607  -0.000165  -0.001761   0.003207  -0.910265  -1.054988
    17  N   -0.007916   0.000000   0.000001   0.000001  -0.063492   0.033911
    18  C   -0.031107   0.000001  -0.000010   0.000006  -0.051245   0.003659
    19  C   -0.023360   0.000001   0.000006  -0.000006  -0.050675  -0.124692
    20  H    0.726498  -0.000410   0.000033  -0.000050  -0.161896  -0.032666
    21  H    0.010584  -0.043253  -0.005188   0.008845  -0.016713  -0.005241
    22  H    0.018792  -0.043325   0.002648  -0.005977  -0.006523   0.005737
    23  H    0.011933  -0.001696   0.005626   0.000459  -0.076520   0.000851
    24  H    0.020560  -0.002157   0.000777   0.004145  -0.056361   0.016371
    25  H   -0.000889  -0.047311   0.405708   0.000866   0.001387   0.000207
    26  H    0.000298  -0.048420   0.410350   0.001173  -0.000346  -0.000625
    27  H   -0.000984  -0.036395   0.389897  -0.007357  -0.000377   0.000265
    28  H    0.000419  -0.044631  -0.000413   0.408835   0.000462   0.000300
    29  H   -0.001483  -0.050782   0.002142   0.404827   0.001554   0.000088
    30  H    0.000357  -0.036706  -0.009548   0.389982  -0.000625  -0.000180
    31  H    0.020270  -0.000033  -0.000436   0.000007   0.001180   0.206628
    32  H    0.010489  -0.000005   0.000036  -0.000010   0.000240   0.005819
    33  H    0.018768   0.000025   0.000009   0.000037  -0.019309  -0.004482
    34  H    0.011551  -0.000109  -0.000128  -0.000510   0.027416   0.031287
    35  H   -0.000876   0.000000   0.000003  -0.000003   0.000941  -0.002904
    36  H    0.000295   0.000000   0.000000   0.000000  -0.001672  -0.005188
    37  H   -0.000990   0.000000  -0.000001   0.000001   0.000854   0.006203
    38  H    0.000424   0.000000   0.000000   0.000000  -0.003067   0.010199
    39  H   -0.001475   0.000000  -0.000003   0.000002   0.000544  -0.024775
    40  H    0.000353   0.000000   0.000001   0.000000   0.002830  -0.000811
              13         14         15         16         17         18
     1  C   -0.066195   0.033349   0.130643   0.086738  -0.000382   0.001630
     2  C    0.033441  -0.020483   0.007733   0.028663   0.000095  -0.000189
     3  C    0.130805   0.007699  -0.066850  -0.125101  -0.000090  -0.001276
     4  C    0.086616   0.028536  -0.125031  -0.298794  -0.000166  -0.001754
     5  C    0.025676   0.123234   0.055385   0.455269   0.006897  -0.005451
     6  C   -0.091564   0.036113   0.136482   0.244039  -0.001094   0.002606
     7  C   -0.345024  -1.107018  -0.428550  -0.022607  -0.007916  -0.031107
     8  N   -0.000382   0.000095  -0.000088  -0.000165   0.000000   0.000001
     9  C    0.001636  -0.000191  -0.001278  -0.001761   0.000001  -0.000010
    10  C   -0.000953  -0.000003   0.001559   0.003207   0.000001   0.000006
    11  C   -0.651782   0.730627  -0.720001  -0.910265  -0.063492  -0.051245
    12  C    1.369220  -1.699237  -0.634979  -1.054988   0.033911   0.003659
    13  C    6.906342  -0.210811  -0.753517  -0.275791  -0.240927  -0.065502
    14  C   -0.210811  10.410276  -0.086640  -2.068649   0.186054   0.138491
    15  C   -0.753517  -0.086640   7.286773   1.520449  -0.232999  -0.062209
    16  C   -0.275791  -2.068649   1.520449   8.470292   0.033437  -0.161711
    17  N   -0.240927   0.186054  -0.232999   0.033437   6.974625   0.316711
    18  C   -0.065502   0.138491  -0.062209  -0.161711   0.316711   5.168657
    19  C   -0.014315   0.109293  -0.102989  -0.027372   0.312560  -0.073764
    20  H   -0.015476  -0.020006  -0.017402  -0.028366  -0.000411   0.000036
    21  H   -0.001808   0.002270   0.004284   0.009644  -0.000005   0.000036
    22  H    0.000084   0.002153  -0.001924  -0.008568   0.000025   0.000009
    23  H    0.009046  -0.005313   0.003669   0.022111  -0.000109  -0.000129
    24  H    0.003267  -0.006004  -0.009544  -0.014603  -0.000033  -0.000435
    25  H    0.000010  -0.000022   0.000101   0.000075   0.000000   0.000003
    26  H   -0.000087  -0.000020   0.000056   0.000442   0.000000   0.000000
    27  H    0.000113  -0.000007  -0.000089  -0.000177   0.000000  -0.000001
    28  H    0.000069  -0.000042  -0.000129  -0.000383   0.000000   0.000000
    29  H    0.000063   0.000014  -0.000109  -0.000506   0.000000  -0.000003
    30  H   -0.000073   0.000008   0.000120   0.000264   0.000000   0.000001
    31  H   -0.046581   0.075933   0.034902   0.060348  -0.002156   0.000782
    32  H    0.451008  -0.053693  -0.033171  -0.014823  -0.043250  -0.005181
    33  H   -0.010081  -0.069301   0.442209   0.011928  -0.043330   0.002668
    34  H    0.009712   0.087118  -0.025711   0.208677  -0.001695   0.005622
    35  H   -0.004024   0.004756   0.012286  -0.014638  -0.047325   0.405538
    36  H   -0.008567  -0.003359   0.016106  -0.004802  -0.048414   0.410475
    37  H    0.010803  -0.014173   0.015211  -0.001116  -0.036382   0.389910
    38  H    0.046993  -0.029194  -0.024550  -0.008777  -0.044629  -0.000453
    39  H   -0.019564   0.024320   0.016696   0.002047  -0.050810   0.002184
    40  H    0.024605  -0.018771   0.006852   0.003635  -0.036708  -0.009547
              19         20         21         22         23         24
     1  C   -0.000951  -0.015442   0.451028  -0.010072   0.009665  -0.046453
     2  C   -0.000002  -0.020026  -0.053727  -0.069454   0.087128   0.075886
     3  C    0.001557  -0.017484  -0.033161   0.442278  -0.025519   0.034886
     4  C    0.003208  -0.028522  -0.014855   0.012019   0.208629   0.060351
     5  C   -0.008218  -0.161919   0.000222  -0.019337   0.027074   0.001010
     6  C   -0.002040  -0.032606   0.005803  -0.004484   0.031208   0.206565
     7  C   -0.023360   0.726498   0.010584   0.018792   0.011933   0.020560
     8  N    0.000001  -0.000410  -0.043253  -0.043325  -0.001696  -0.002157
     9  C    0.000006   0.000033  -0.005188   0.002648   0.005626   0.000777
    10  C   -0.000006  -0.000050   0.008845  -0.005977   0.000459   0.004145
    11  C   -0.050675  -0.161896  -0.016713  -0.006523  -0.076520  -0.056361
    12  C   -0.124692  -0.032666  -0.005241   0.005737   0.000851   0.016371
    13  C   -0.014315  -0.015476  -0.001808   0.000084   0.009046   0.003267
    14  C    0.109293  -0.020006   0.002270   0.002153  -0.005313  -0.006004
    15  C   -0.102989  -0.017402   0.004284  -0.001924   0.003669  -0.009544
    16  C   -0.027372  -0.028366   0.009644  -0.008568   0.022111  -0.014603
    17  N    0.312560  -0.000411  -0.000005   0.000025  -0.000109  -0.000033
    18  C   -0.073764   0.000036   0.000036   0.000009  -0.000129  -0.000435
    19  C    5.172936  -0.000048  -0.000010   0.000037  -0.000511   0.000007
    20  H   -0.000048   0.547918   0.000128   0.000564   0.000089   0.001302
    21  H   -0.000010   0.000128   0.525187  -0.001402   0.001146  -0.023504
    22  H    0.000037   0.000564  -0.001402   0.525208  -0.024532   0.001690
    23  H   -0.000511   0.000089   0.001146  -0.024532   0.545816  -0.002004
    24  H    0.000007   0.001302  -0.023504   0.001690  -0.002004   0.539987
    25  H   -0.000003  -0.000122  -0.000245  -0.011388   0.000909  -0.000159
    26  H    0.000000   0.000114  -0.000106  -0.009961   0.001224  -0.000120
    27  H    0.000001   0.000014   0.001101   0.006776  -0.000113  -0.000099
    28  H    0.000000   0.000081  -0.006243  -0.000574  -0.000045  -0.000105
    29  H    0.000002  -0.000084  -0.012922   0.000414  -0.000203   0.001632
    30  H    0.000000   0.000011   0.006541   0.001148  -0.000181  -0.000079
    31  H    0.004138   0.001326   0.000305  -0.000465   0.001913  -0.000976
    32  H    0.008878   0.000121  -0.000133  -0.000057  -0.000560   0.000305
    33  H   -0.005978   0.000563  -0.000057  -0.000188   0.000384  -0.000464
    34  H    0.000468   0.000099  -0.000563   0.000384  -0.001108   0.001910
    35  H    0.000900  -0.000123   0.000007   0.000006   0.000014  -0.000017
    36  H    0.001136   0.000113  -0.000001   0.000002  -0.000013   0.000014
    37  H   -0.007347   0.000014   0.000001   0.000000  -0.000005  -0.000012
    38  H    0.408982   0.000081   0.000001   0.000006   0.000007   0.000004
    39  H    0.404654  -0.000084   0.000005  -0.000010   0.000011  -0.000016
    40  H    0.389987   0.000011  -0.000001   0.000000  -0.000012   0.000005
              25         26         27         28         29         30
     1  C   -0.003850  -0.008787   0.010828   0.047162  -0.019628   0.024565
     2  C    0.004502  -0.003176  -0.014095  -0.028955   0.023927  -0.018706
     3  C    0.012132   0.016313   0.015168  -0.024789   0.016845   0.006884
     4  C   -0.014569  -0.004810  -0.001161  -0.008836   0.002084   0.003638
     5  C    0.000949  -0.001698   0.000869  -0.003114   0.000576   0.002833
     6  C   -0.002847  -0.005259   0.006210   0.010205  -0.024635  -0.000870
     7  C   -0.000889   0.000298  -0.000984   0.000419  -0.001483   0.000357
     8  N   -0.047311  -0.048420  -0.036395  -0.044631  -0.050782  -0.036706
     9  C    0.405708   0.410350   0.389897  -0.000413   0.002142  -0.009548
    10  C    0.000866   0.001173  -0.007357   0.408835   0.404827   0.389982
    11  C    0.001387  -0.000346  -0.000377   0.000462   0.001554  -0.000625
    12  C    0.000207  -0.000625   0.000265   0.000300   0.000088  -0.000180
    13  C    0.000010  -0.000087   0.000113   0.000069   0.000063  -0.000073
    14  C   -0.000022  -0.000020  -0.000007  -0.000042   0.000014   0.000008
    15  C    0.000101   0.000056  -0.000089  -0.000129  -0.000109   0.000120
    16  C    0.000075   0.000442  -0.000177  -0.000383  -0.000506   0.000264
    17  N    0.000000   0.000000   0.000000   0.000000   0.000000   0.000000
    18  C    0.000003   0.000000  -0.000001   0.000000  -0.000003   0.000001
    19  C   -0.000003   0.000000   0.000001   0.000000   0.000002   0.000000
    20  H   -0.000122   0.000114   0.000014   0.000081  -0.000084   0.000011
    21  H   -0.000245  -0.000106   0.001101  -0.006243  -0.012922   0.006541
    22  H   -0.011388  -0.009961   0.006776  -0.000574   0.000414   0.001148
    23  H    0.000909   0.001224  -0.000113  -0.000045  -0.000203  -0.000181
    24  H   -0.000159  -0.000120  -0.000099  -0.000105   0.001632  -0.000079
    25  H    0.546907  -0.047081  -0.025824   0.001920  -0.002522  -0.001699
    26  H   -0.047081   0.540287  -0.022230  -0.002697   0.001770  -0.001704
    27  H   -0.025824  -0.022230   0.498422  -0.000829  -0.002611   0.012465
    28  H    0.001920  -0.002697  -0.000829   0.540099  -0.046905  -0.025791
    29  H   -0.002522   0.001770  -0.002611  -0.046905   0.545649  -0.022581
    30  H   -0.001699  -0.001704   0.012465  -0.025791  -0.022581   0.498186
    31  H   -0.000017   0.000014  -0.000012   0.000004  -0.000016   0.000005
    32  H    0.000007  -0.000001   0.000001   0.000001   0.000005  -0.000001
    33  H    0.000006   0.000002   0.000000   0.000006  -0.000010   0.000000
    34  H    0.000014  -0.000013  -0.000005   0.000007   0.000011  -0.000012
    35  H   -0.000001   0.000000   0.000000   0.000000   0.000001   0.000000
    36  H    0.000000   0.000000   0.000000   0.000000   0.000000   0.000000
    37  H    0.000000   0.000000   0.000000   0.000000   0.000000   0.000000
    38  H    0.000000   0.000000   0.000000   0.000000   0.000000   0.000000
    39  H    0.000001   0.000000   0.000000   0.000000  -0.000001   0.000000
    40  H    0.000000   0.000000   0.000000   0.000000   0.000000   0.000000
              31         32         33         34         35         36
     1  C    0.003273  -0.001807   0.000092   0.009004   0.000009  -0.000086
     2  C   -0.005991   0.002270   0.002153  -0.005294  -0.000022  -0.000020
     3  C   -0.009550   0.004283  -0.001925   0.003687   0.000102   0.000056
     4  C   -0.014622   0.009646  -0.008566   0.022146   0.000075   0.000440
     5  C   -0.056286  -0.016716  -0.006529  -0.076440   0.001387  -0.000347
     6  C    0.016370  -0.005241   0.005725   0.000769   0.000207  -0.000621
     7  C    0.020270   0.010489   0.018768   0.011551  -0.000876   0.000295
     8  N   -0.000033  -0.000005   0.000025  -0.000109   0.000000   0.000000
     9  C   -0.000436   0.000036   0.000009  -0.000128   0.000003   0.000000
    10  C    0.000007  -0.000010   0.000037  -0.000510  -0.000003   0.000000
    11  C    0.001180   0.000240  -0.019309   0.027416   0.000941  -0.001672
    12  C    0.206628   0.005819  -0.004482   0.031287  -0.002904  -0.005188
    13  C   -0.046581   0.451008  -0.010081   0.009712  -0.004024  -0.008567
    14  C    0.075933  -0.053693  -0.069301   0.087118   0.004756  -0.003359
    15  C    0.034902  -0.033171   0.442209  -0.025711   0.012286   0.016106
    16  C    0.060348  -0.014823   0.011928   0.208677  -0.014638  -0.004802
    17  N   -0.002156  -0.043250  -0.043330  -0.001695  -0.047325  -0.048414
    18  C    0.000782  -0.005181   0.002668   0.005622   0.405538   0.410475
    19  C    0.004138   0.008878  -0.005978   0.000468   0.000900   0.001136
    20  H    0.001326   0.000121   0.000563   0.000099  -0.000123   0.000113
    21  H    0.000305  -0.000133  -0.000057  -0.000563   0.000007  -0.000001
    22  H   -0.000465  -0.000057  -0.000188   0.000384   0.000006   0.000002
    23  H    0.001913  -0.000560   0.000384  -0.001108   0.000014  -0.000013
    24  H   -0.000976   0.000305  -0.000464   0.001910  -0.000017   0.000014
    25  H   -0.000017   0.000007   0.000006   0.000014  -0.000001   0.000000
    26  H    0.000014  -0.000001   0.000002  -0.000013   0.000000   0.000000
    27  H   -0.000012   0.000001   0.000000  -0.000005   0.000000   0.000000
    28  H    0.000004   0.000001   0.000006   0.000007   0.000000   0.000000
    29  H   -0.000016   0.000005  -0.000010   0.000011   0.000001   0.000000
    30  H    0.000005  -0.000001   0.000000  -0.000012   0.000000   0.000000
    31  H    0.540050  -0.023516   0.001690  -0.002009  -0.000158  -0.000121
    32  H   -0.023516   0.525200  -0.001404   0.001150  -0.000249  -0.000099
    33  H    0.001690  -0.001404   0.525224  -0.024546  -0.011362  -0.009997
    34  H   -0.002009   0.001150  -0.024546   0.545840   0.000907   0.001226
    35  H   -0.000158  -0.000249  -0.011362   0.000907   0.547133  -0.047078
    36  H   -0.000121  -0.000099  -0.009997   0.001226  -0.047078   0.540110
    37  H   -0.000099   0.001100   0.006784  -0.000114  -0.025892  -0.022176
    38  H   -0.000102  -0.006293  -0.000564  -0.000047   0.001920  -0.002677
    39  H    0.001633  -0.012888   0.000407  -0.000202  -0.002545   0.001771
    40  H   -0.000080   0.006548   0.001148  -0.000180  -0.001673  -0.001731
              37         38         39         40
     1  C    0.000112   0.000068   0.000063  -0.000073
     2  C   -0.000007  -0.000042   0.000014   0.000008
     3  C   -0.000089  -0.000128  -0.000109   0.000120
     4  C   -0.000176  -0.000381  -0.000507   0.000263
     5  C   -0.000375   0.000461   0.001554  -0.000626
     6  C    0.000264   0.000299   0.000088  -0.000179
     7  C   -0.000990   0.000424  -0.001475   0.000353
     8  N    0.000000   0.000000   0.000000   0.000000
     9  C   -0.000001   0.000000  -0.000003   0.000001
    10  C    0.000001   0.000000   0.000002   0.000000
    11  C    0.000854  -0.003067   0.000544   0.002830
    12  C    0.006203   0.010199  -0.024775  -0.000811
    13  C    0.010803   0.046993  -0.019564   0.024605
    14  C   -0.014173  -0.029194   0.024320  -0.018771
    15  C    0.015211  -0.024550   0.016696   0.006852
    16  C   -0.001116  -0.008777   0.002047   0.003635
    17  N   -0.036382  -0.044629  -0.050810  -0.036708
    18  C    0.389910  -0.000453   0.002184  -0.009547
    19  C   -0.007347   0.408982   0.404654   0.389987
    20  H    0.000014   0.000081  -0.000084   0.000011
    21  H    0.000001   0.000001   0.000005  -0.000001
    22  H    0.000000   0.000006  -0.000010   0.000000
    23  H   -0.000005   0.000007   0.000011  -0.000012
    24  H   -0.000012   0.000004  -0.000016   0.000005
    25  H    0.000000   0.000000   0.000001   0.000000
    26  H    0.000000   0.000000   0.000000   0.000000
    27  H    0.000000   0.000000   0.000000   0.000000
    28  H    0.000000   0.000000   0.000000   0.000000
    29  H    0.000000   0.000000  -0.000001   0.000000
    30  H    0.000000   0.000000   0.000000   0.000000
    31  H   -0.000099  -0.000102   0.001633  -0.000080
    32  H    0.001100  -0.006293  -0.012888   0.006548
    33  H    0.006784  -0.000564   0.000407   0.001148
    34  H   -0.000114  -0.000047  -0.000202  -0.000180
    35  H   -0.025892   0.001920  -0.002545  -0.001673
    36  H   -0.022176  -0.002677   0.001771  -0.001731
    37  H    0.498432  -0.000856  -0.002585   0.012466
    38  H   -0.000856   0.539902  -0.046908  -0.025732
    39  H   -0.002585  -0.046908   0.545901  -0.022646
    40  H    0.012466  -0.025732  -0.022646   0.498213
 Mulliken charges:
               1
     1  C   -0.286552
     2  C   -0.587495
     3  C   -0.363566
     4  C   -0.117073
     5  C    0.702209
     6  C   -0.079159
     7  C   -0.037138
     8  N    0.038034
     9  C   -0.379028
    10  C   -0.376512
    11  C    0.703092
    12  C   -0.079563
    13  C   -0.286487
    14  C   -0.587404
    15  C   -0.363756
    16  C   -0.117298
    17  N    0.038007
    18  C   -0.379059
    19  C   -0.376470
    20  H    0.274025
    21  H    0.192000
    22  H    0.198261
    23  H    0.169662
    24  H    0.192470
    25  H    0.182848
    26  H    0.185097
    27  H    0.170235
    28  H    0.184910
    29  H    0.183399
    30  H    0.171750
    31  H    0.192451
    32  H    0.191990
    33  H    0.198267
    34  H    0.169680
    35  H    0.182699
    36  H    0.185224
    37  H    0.170237
    38  H    0.185051
    39  H    0.183232
    40  H    0.171730
 Sum of Mulliken charges =   1.00000
 Mulliken charges with hydrogens summed into heavy atoms:
               1
     1  C   -0.094552
     2  C   -0.587495
     3  C   -0.165305
     4  C    0.052588
     5  C    0.702209
     6  C    0.113312
     7  C    0.236887
     8  N    0.038034
     9  C    0.159152
    10  C    0.163548
    11  C    0.703092
    12  C    0.112889
    13  C   -0.094497
    14  C   -0.587404
    15  C   -0.165489
    16  C    0.052382
    17  N    0.038007
    18  C    0.159101
    19  C    0.163542
 Electronic spatial extent (au):  <R**2>=           8374.9217
 Charge=              1.0000 electrons
 Dipole moment (field-independent basis, Debye):
    X=              0.0029    Y=              0.0002    Z=             -0.9616  Tot=              0.9616
 Quadrupole moment (field-independent basis, Debye-Ang):
   XX=             -8.3847   YY=            -94.7885   ZZ=           -101.7673
   XY=             -0.8040   XZ=             -0.0050   YZ=             -0.0003
 Traceless Quadrupole moment (field-independent basis, Debye-Ang):
   XX=             59.9288   YY=            -26.4750   ZZ=            -33.4538
   XY=             -0.8040   XZ=             -0.0050   YZ=             -0.0003
 Octapole moment (field-independent basis, Debye-Ang**2):
  XXX=              0.0341  YYY=              0.0069  ZZZ=             -3.2208  XYY=              0.0161
  XXY=              0.0302  XXZ=           -153.2191  XZZ=              0.0019  YZZ=             -0.0071
  YYZ=             -6.2070  XYZ=             -7.9544
 Hexadecapole moment (field-independent basis, Debye-Ang**3):
 XXXX=          -6203.7218 YYYY=           -858.7845 ZZZZ=           -776.8487 XXXY=            -38.7795
 XXXZ=             -0.1473 YYYX=             -0.7357 YYYZ=             -0.0035 ZZZX=             -0.0293
 ZZZY=             -0.0131 XXYY=          -1469.0927 XXZZ=          -1565.0584 YYZZ=           -279.2809
 XXYZ=              0.0060 YYXZ=              0.0125 ZZXY=              5.3761
 N-N= 1.322262432829D+03 E-N=-4.414471980622D+03  KE= 7.676236492028D+02

[...]
       Atomic Center   10 is at   6.377218 -0.305431 -0.260955
       Atomic Center   11 is at  -1.289670 -0.842961 -0.035560
       Atomic Center   12 is at  -2.403853 -1.703308  0.198809
       Atomic Center   13 is at  -3.694325 -1.247571  0.220078
       Atomic Center   14 is at  -3.985484  0.127976 -0.029000
       Atomic Center   15 is at  -2.881918  0.986034 -0.334902
       Atomic Center   16 is at  -1.595571  0.517966 -0.331804
       Atomic Center   17 is at  -5.251749  0.596551 -0.001986
       Atomic Center   18 is at  -5.536402  2.009531 -0.268863
       Atomic Center   19 is at  -6.377225 -0.305427  0.260927
       Atomic Center   20 is at   0.000000 -2.497787  0.000018
       Atomic Center   21 is at   4.493659 -1.945126 -0.422804
       Atomic Center   22 is at   3.059709  2.017761  0.601429
       Atomic Center   23 is at   0.806026  1.196683  0.622868
       Atomic Center   24 is at   2.217313 -2.754312 -0.391565
       Atomic Center   25 is at   4.987415  2.656902 -0.419412
       Atomic Center   26 is at   5.278548  2.281141  1.297018
       Atomic Center   27 is at   6.598828  2.188119  0.126246
       Atomic Center   28 is at   6.451065 -1.081422  0.506296
       Atomic Center   29 is at   6.279184 -0.781295 -1.240338
       Atomic Center   30 is at   7.299353  0.269430 -0.253443
       Atomic Center   31 is at  -2.217316 -2.754316  0.391559
       Atomic Center   32 is at  -4.493662 -1.945132  0.422784
       Atomic Center   33 is at  -3.059706  2.017764 -0.601407
       Atomic Center   34 is at  -0.806022  1.196688 -0.622831
       Atomic Center   35 is at  -4.987411  2.656899  0.419413
       Atomic Center   36 is at  -5.278525  2.281147 -1.297022
       Atomic Center   37 is at  -6.598820  2.188126 -0.126266
       Atomic Center   38 is at  -6.451069 -1.081412 -0.506330
       Atomic Center   39 is at  -6.279203 -0.781298  1.240308
       Atomic Center   40 is at  -7.299357  0.269440  0.253411
 -----------------------------------------------------------------

              Electrostatic Properties (Atomic Units)

 -----------------------------------------------------------------
    Center     Electric         -------- Electric Field --------
               Potential          X             Y             Z
 -----------------------------------------------------------------
    1 Atom    -14.657203      0.000561     -0.001828     -0.000308
    2 Atom    -14.595394     -0.008307     -0.003152     -0.000015
    3 Atom    -14.653939     -0.000598      0.001370      0.000570
    4 Atom    -14.645880     -0.000838     -0.000251     -0.000031
    5 Atom    -14.643050      0.000877      0.000601      0.000307
    6 Atom    -14.647396     -0.001157     -0.000512      0.000829
    7 Atom    -14.625471      0.000000      0.000351      0.000000
    8 Atom    -18.229782      0.004948      0.001967     -0.001002
    9 Atom    -14.628822      0.001754      0.007854      0.001518
   10 Atom    -14.629773      0.006430     -0.005019     -0.001408
   11 Atom    -14.643050     -0.000877      0.000601     -0.000307
   12 Atom    -14.647396      0.001157     -0.000511     -0.000829
   13 Atom    -14.657203     -0.000561     -0.001828      0.000308
   14 Atom    -14.595394      0.008307     -0.003152      0.000015
   15 Atom    -14.653939      0.000598      0.001370     -0.000570
   16 Atom    -14.645880      0.000838     -0.000251      0.000031
   17 Atom    -18.229782     -0.004948      0.001967      0.001002
   18 Atom    -14.628822     -0.001754      0.007854     -0.001518
   19 Atom    -14.629772     -0.006430     -0.005019      0.001408
   20 Atom     -0.981133      0.000000     -0.018830      0.000000
   21 Atom     -0.989191      0.014234     -0.012930     -0.003694
   22 Atom     -0.986986      0.002822      0.018700      0.004892
   23 Atom     -0.985809     -0.014070      0.012307      0.005450
   24 Atom     -0.987865     -0.003076     -0.018641     -0.003410
   25 Atom     -0.997242     -0.008959      0.011111     -0.011710
   26 Atom     -0.997895     -0.004133      0.004636      0.017310
   27 Atom     -0.992986      0.018192      0.003455     -0.002408
   28 Atom     -0.998768      0.001492     -0.013010      0.012964
   29 Atom     -0.998343     -0.001318     -0.007936     -0.016595
   30 Atom     -0.993720      0.016049      0.009522      0.000032
   31 Atom     -0.987865      0.003076     -0.018641      0.003410
   32 Atom     -0.989191     -0.014235     -0.012930      0.003694
   33 Atom     -0.986986     -0.002822      0.018699     -0.004892
   34 Atom     -0.985809      0.014070      0.012307     -0.005450
   35 Atom     -0.997242      0.008959      0.011111      0.011710
   36 Atom     -0.997895      0.004133      0.004636     -0.017310
   37 Atom     -0.992986     -0.018192      0.003455      0.002408
   38 Atom     -0.998768     -0.001491     -0.013010     -0.012964
   39 Atom     -0.998343      0.001318     -0.007936      0.016595
   40 Atom     -0.993719     -0.016049      0.009522     -0.000032
 -----------------------------------------------------------------
 -----------------------------------------------------
    Center         ---- Electric Field Gradient ----
                     XX            YY            ZZ
 -----------------------------------------------------
    1 Atom     -500.605345   -500.738873   -500.973351
    2 Atom     -500.871292   -500.672068   -501.239510
    3 Atom     -500.675412   -500.713401   -501.001799
    4 Atom     -500.809543   -500.917596   -501.363272
    5 Atom     -500.584584   -500.582582   -500.881445
    6 Atom     -500.885484   -500.966225   -501.485274
    7 Atom     -501.033337   -501.069946   -501.807783
    8 Atom     -812.284873   -812.271983   -811.004281
    9 Atom     -500.141632   -500.619334   -500.163963
   10 Atom     -500.465075   -500.299689   -500.165274
   11 Atom     -500.584585   -500.582582   -500.881448
   12 Atom     -500.885483   -500.966224   -501.485278
   13 Atom     -500.605342   -500.738871   -500.973351
   14 Atom     -500.871292   -500.672067   -501.239514
   15 Atom     -500.675413   -500.713401   -501.001803
   16 Atom     -500.809542   -500.917594   -501.363276
   17 Atom     -812.284877   -812.271987   -811.004280
   18 Atom     -500.141631   -500.619336   -500.163964
   19 Atom     -500.465079   -500.299686   -500.165271
   20 Atom       -1.706140     -2.144187     -1.680948
   21 Atom       -1.953180     -1.886526     -1.681699
   22 Atom       -1.712081     -2.118920     -1.696943
   23 Atom       -1.951867     -1.881001     -1.714606
   24 Atom       -1.705622     -2.117629     -1.683408
   25 Atom       -1.802604     -1.850421     -1.861466
   26 Atom       -1.708330     -1.721089     -2.074558
   27 Atom       -2.129926     -1.717968     -1.688961
   28 Atom       -1.694636     -1.907999     -1.902575
   29 Atom       -1.699494     -1.769144     -2.039925
   30 Atom       -2.021958     -1.835066     -1.680552
   31 Atom       -1.705622     -2.117630     -1.683407
   32 Atom       -1.953181     -1.886527     -1.681697
   33 Atom       -1.712080     -2.118921     -1.696941
   34 Atom       -1.951868     -1.881002     -1.714603
   35 Atom       -1.802602     -1.850418     -1.861470
   36 Atom       -1.708333     -1.721089     -2.074554
   37 Atom       -2.129926     -1.717969     -1.688959
   38 Atom       -1.694635     -1.907995     -1.902578
   39 Atom       -1.699493     -1.769146     -2.039923
   40 Atom       -2.021955     -1.835067     -1.680551
 -----------------------------------------------------
 -----------------------------------------------------
    Center         ---- Electric Field Gradient ----
                     XY            XZ            YZ
 -----------------------------------------------------
    1 Atom        0.002542     -0.035182      0.046314
    2 Atom       -0.077329     -0.052647      0.132154
    3 Atom        0.069443     -0.017777      0.072971
    4 Atom        0.027371     -0.051884      0.142580
    5 Atom       -0.004873     -0.020808      0.060377
    6 Atom        0.042773     -0.053542      0.105040
    7 Atom        0.000000      0.032571     -0.000003
    8 Atom       -0.012807      0.113621     -0.259422
    9 Atom       -0.125421     -0.025705     -0.082999
   10 Atom        0.257470      0.074945     -0.050178
   11 Atom        0.004874     -0.020807     -0.060376
   12 Atom       -0.042772     -0.053536     -0.105036
   13 Atom       -0.002541     -0.035178     -0.046312
   14 Atom        0.077331     -0.052643     -0.132150
   15 Atom       -0.069442     -0.017775     -0.072969
   16 Atom       -0.027369     -0.051879     -0.142576
   17 Atom        0.012804      0.113609      0.259416
   18 Atom        0.125418     -0.025704      0.082998
   19 Atom       -0.257471      0.074941      0.050174
   20 Atom        0.000000      0.003663      0.000002
   21 Atom        0.220723      0.067351     -0.061774
   22 Atom       -0.075610     -0.016216     -0.116505
   23 Atom        0.214426      0.089711     -0.082527
   24 Atom       -0.078359     -0.012523     -0.081571
   25 Atom        0.127940     -0.146952      0.161954
   26 Atom        0.020160      0.102317     -0.101351
   27 Atom       -0.067757      0.061816      0.003600
   28 Atom        0.024719     -0.013299      0.221186
   29 Atom       -0.012192     -0.039799     -0.175289
   30 Atom       -0.200155     -0.000463     -0.006961
   31 Atom        0.078358     -0.012523      0.081569
   32 Atom       -0.220724      0.067347      0.061771
   33 Atom        0.075609     -0.016215      0.116502
   34 Atom       -0.214427      0.089707      0.082524
   35 Atom       -0.127938     -0.146952     -0.161954
   36 Atom       -0.020162      0.102322      0.101352
   37 Atom        0.067759      0.061811     -0.003599
   38 Atom       -0.024718     -0.013298     -0.221186
   39 Atom        0.012190     -0.039795      0.175291
   40 Atom        0.200156     -0.000465      0.006962
 -----------------------------------------------------
 -----------------------------------------------------
    Center         ---- Electric Field Gradient ----
                   ----       Eigenvalues       ----
 -----------------------------------------------------
    1 Atom     -500.985398   -500.730185   -500.601986
    2 Atom     -501.271874   -500.897669   -500.613327
    3 Atom     -501.022545   -500.748253   -500.619815
    4 Atom     -501.410483   -500.877726   -500.802202
    5 Atom     -500.894409   -500.587847   -500.566355
    6 Atom     -501.511632   -500.958427   -500.866923
    7 Atom     -501.809150   -501.069946   -501.031970
    8 Atom     -812.325804   -812.291768   -810.943566
    9 Atom     -500.665271   -500.149601   -500.110058
   10 Atom     -500.668932   -500.149485   -500.111621
   11 Atom     -500.894411   -500.587848   -500.566356
   12 Atom     -501.511633   -500.958427   -500.866924
   13 Atom     -500.985397   -500.730184   -500.601984
   14 Atom     -501.271875   -500.897670   -500.613328
   15 Atom     -501.022547   -500.748254   -500.619817
   16 Atom     -501.410484   -500.877725   -500.802203
   17 Atom     -812.325805   -812.291770   -810.943569
   18 Atom     -500.665271   -500.149602   -500.110059
   19 Atom     -500.668932   -500.149484   -500.111620
   20 Atom       -2.144187     -1.706662     -1.680426
   21 Atom       -2.160505     -1.696877     -1.664023
   22 Atom       -2.162212     -1.699121     -1.666611
   23 Atom       -2.166593     -1.700305     -1.680577
   24 Atom       -2.146717     -1.691473     -1.668470
   25 Atom       -2.132751     -1.700085     -1.681655
   26 Atom       -2.127401     -1.697112     -1.679463
   27 Atom       -2.149035     -1.708480     -1.679340
   28 Atom       -2.128163     -1.697581     -1.679466
   29 Atom       -2.129946     -1.698387     -1.680229
   30 Atom       -2.149442     -1.708738     -1.679395
   31 Atom       -2.146716     -1.691473     -1.668470
   32 Atom       -2.160505     -1.696877     -1.664023
   33 Atom       -2.162211     -1.699121     -1.666611
   34 Atom       -2.166593     -1.700305     -1.680577
   35 Atom       -2.132750     -1.700085     -1.681655
   36 Atom       -2.127401     -1.697112     -1.679463
   37 Atom       -2.149034     -1.708480     -1.679340
   38 Atom       -2.128163     -1.697580     -1.679466
   39 Atom       -2.129946     -1.698387     -1.680229
   40 Atom       -2.149441     -1.708738     -1.679395
 -----------------------------------------------------
 -----------------------------------------------------
    Center         ---- Electric Field Gradient ----
                       ( tensor representation )
                   3XX-RR        3YY-RR        3ZZ-RR
 -----------------------------------------------------
    1 Atom        0.167178      0.033650     -0.200829
    2 Atom        0.056331      0.255555     -0.311887
    3 Atom        0.121458      0.083470     -0.204928
    4 Atom        0.220594      0.112540     -0.333135
    5 Atom        0.098286      0.100288     -0.198574
    6 Atom        0.226844      0.146103     -0.372946
    7 Atom        0.270351      0.233743     -0.504094
    8 Atom       -0.431161     -0.418271      0.849431
    9 Atom        0.166678     -0.311024      0.144346
   10 Atom       -0.155063      0.010324      0.144739
   11 Atom        0.098287      0.100289     -0.198576
   12 Atom        0.226845      0.146105     -0.372950
   13 Atom        0.167179      0.033650     -0.200830
   14 Atom        0.056333      0.255557     -0.311890
   15 Atom        0.121459      0.083471     -0.204930
   16 Atom        0.220595      0.112544     -0.333139
   17 Atom       -0.431163     -0.418272      0.849435
   18 Atom        0.166680     -0.311026      0.144346
   19 Atom       -0.155067      0.010326      0.144741
   20 Atom        0.137618     -0.300429      0.162810
   21 Atom       -0.112712     -0.046058      0.158769
   22 Atom        0.130567     -0.276272      0.145705
   23 Atom       -0.102709     -0.031843      0.134552
   24 Atom        0.129931     -0.282076      0.152145
   25 Atom        0.035560     -0.012257     -0.023302
   26 Atom        0.126329      0.113570     -0.239899
   27 Atom       -0.284307      0.127650      0.156657
   28 Atom        0.140434     -0.072929     -0.067505
   29 Atom        0.136693      0.067044     -0.203737
   30 Atom       -0.176100      0.010793      0.165307
   31 Atom        0.129931     -0.282077      0.152146
   32 Atom       -0.112712     -0.046059      0.158772
   33 Atom        0.130567     -0.276273      0.145706
   34 Atom       -0.102711     -0.031844      0.134555
   35 Atom        0.035562     -0.012255     -0.023307
   36 Atom        0.126326      0.113569     -0.239895
   37 Atom       -0.284308      0.127649      0.156659
   38 Atom        0.140434     -0.072925     -0.067509
   39 Atom        0.136694      0.067041     -0.203735
   40 Atom       -0.176097      0.010791      0.165307
 -----------------------------------------------------
 -----------------------------------------------------
    Center         ---- Electric Field Gradient ----
                       ( tensor representation )
                   ----       Eigenvalues       ----
 -----------------------------------------------------
    1 Atom       -0.212875      0.042338      0.170537
    2 Atom       -0.344251      0.029954      0.314296
    3 Atom       -0.225674      0.048618      0.177056
    4 Atom       -0.380346      0.152411      0.227934
    5 Atom       -0.211539      0.095023      0.116516
    6 Atom       -0.399304      0.153901      0.245404
    7 Atom       -0.505461      0.233743      0.271719
    8 Atom       -0.472091     -0.438056      0.910147
    9 Atom       -0.356961      0.158709      0.198252
   10 Atom       -0.358919      0.160528      0.198392
   11 Atom       -0.211540      0.095023      0.116516
   12 Atom       -0.399305      0.153901      0.245404
   13 Atom       -0.212875      0.042338      0.170537
   14 Atom       -0.344251      0.029954      0.314297
   15 Atom       -0.225674      0.048619      0.177056
   16 Atom       -0.380347      0.152412      0.227935
   17 Atom       -0.472091     -0.438055      0.910146
   18 Atom       -0.356961      0.158709      0.198252
   19 Atom       -0.358920      0.160528      0.198392
   20 Atom       -0.300429      0.137096      0.163332
   21 Atom       -0.320036      0.143591      0.176445
   22 Atom       -0.319564      0.143527      0.176037
   23 Atom       -0.317435      0.148853      0.168581
   24 Atom       -0.311163      0.144080      0.167083
   25 Atom       -0.294588      0.138079      0.156509
   26 Atom       -0.292743      0.137547      0.155196
   27 Atom       -0.303417      0.137138      0.166279
   28 Atom       -0.293093      0.137489      0.155604
   29 Atom       -0.293759      0.137801      0.155958
   30 Atom       -0.303584      0.137120      0.166463
   31 Atom       -0.311163      0.144080      0.167083
   32 Atom       -0.320037      0.143591      0.176445
   33 Atom       -0.319563      0.143526      0.176037
   34 Atom       -0.317435      0.148853      0.168581
   35 Atom       -0.294587      0.138079      0.156508
   36 Atom       -0.292742      0.137546      0.155196
   37 Atom       -0.303416      0.137138      0.166279
   38 Atom       -0.293093      0.137489      0.155604
   39 Atom       -0.293759      0.137801      0.155958
   40 Atom       -0.303583      0.137120      0.166463
 -----------------------------------------------------

 Test job not archived.
 1|1|UNPC-NP-ALMACH|FOpt|RB3LYP|6-311++G(d,p)|C17H21N2(1+)|HERA|27-Aug-
 2018|0||# RB3LYP/6-311++G** Opt Test prop=EFG||C17N2H21||1,1|C,2.26877
 60004,3.1039668825,-1.0796688018|C,3.0765088087,2.011788978,-0.6396041
 518|C,2.4154473438,0.7676757775,-0.3888510407|C,1.0573606459,0.6472628
 675,-0.5108642559|C,0.2356554177,1.7452318173,-0.9016638175|C,0.914453
 8194,2.9604458894,-1.2163339733|C,-1.1658967696,1.7167373528,-1.043923
 697|N,4.41258378,2.1387807856,-0.4896169069|C,5.2303739567,1.006034502
 4,-0.0459163813|C,5.0828564485,3.4049160948,-0.801096757|C,-2.14825586
 29,0.7969714711,-0.6263113541|C,-3.4637247653,0.9354225052,-1.16194423
 14|C,-4.4807969187,0.0748537792,-0.8481766953|C,-4.2706048269,-0.99724
 02112,0.0712666353|C,-2.9745655578,-1.1031917452,0.6685545054|C,-1.962
 854393,-0.2463293183,0.327947102|N,-5.2599294676,-1.8614758038,0.38440
 09068|C,-5.0320871395,-2.9518940196,1.3372073332|C,-6.5976875341,-1.70
 84411513,-0.1955714778|H,-1.5685957962,2.5729396573,-1.5817655229|H,2.
 7217819682,4.0557705327,-1.3152038799|H,2.9937139839,-0.1056859476,-0.
 1243751264|H,0.6172702863,-0.3288894139,-0.3618847255|H,0.3300755583,3
 .8098163713,-1.5534395943|H,4.8796506612,0.6218692255,0.9151304394|H,5
 .219979334,0.1947030848,-0.7800958068|H,6.2572142955,1.3396217713,0.07
 76935267|H,4.9581762147,3.670851804,-1.8546734272|H,4.695957472,4.2176
 291921,-0.1805683465|H,6.1456210683,3.3003909414,-0.5999490436|H,-3.65
 71086473,1.7396994919,-1.8635920379|H,-5.4500090016,0.2205886536,-1.30
 20605478|H,-2.7893361641,-1.8531448586,1.4237774982|H,-1.0204980317,-0
 .3380737604,0.8497662243|H,-4.2023041345,-3.5863017271,1.0159780631|H,
 -4.8206805993,-2.5679147702,2.3398306903|H,-5.9267687361,-3.5664722783
 ,1.390119589|H,-7.0472478577,-0.7534408389,0.0910658863|H,-6.562947991
 7,-1.7724322355,-1.2864185387|H,-7.2350428683,-2.5083973494,0.17144773
 95||Version=EM64W-G09RevD.01|State=1-A|HF=-769.9348848|RMSD=7.397e-009
 |RMSF=2.570e-006|Dipole=0.1765936,-0.3754831,0.2358711|Quadrupole=49.2
 190168,-13.4519647,-35.7670521,30.9397924,-3.4986691,-10.7728723|PG=C0
 1 [X(C17H21N2)]||@


 ONLY THE DAY DAWNS TO WHICH YOU ARE AWAKE.

                                 -- THOREAU
 Job cpu time:       0 days  1 hours 19 minutes 30.0 seconds.
 File lengths (MBytes):  RWF=    200 Int=      0 D2E=      0 Chk=     26 Scr=      1
 Normal termination of Gaussian 09 at Mon Aug 27 20:25:30 2018.
