 Entering Link 1 = C:\G09W\l1.exe PID=      5468.
  
 Copyright (c) 1988,1990,1992,1993,1995,1998,2003,2009,2013,
            Gaussian, Inc.  All Rights Reserved.
  
 This is part of the Gaussian(R) 09 program.  It is based on
 the Gaussian(R) 03 system (copyright 2003, Gaussian, Inc.),
 the Gaussian(R) 98 system (copyright 1998, Gaussian, Inc.),
 the Gaussian(R) 94 system (copyright 1995, Gaussian, Inc.),
 the Gaussian 92(TM) system (copyright 1992, Gaussian, Inc.),
 the Gaussian 90(TM) system (copyright 1990, Gaussian, Inc.),
 the Gaussian 88(TM) system (copyright 1988, Gaussian, Inc.),
 the Gaussian 86(TM) system (copyright 1986, Carnegie Mellon
 University), and the Gaussian 82(TM) system (copyright 1983,
 Carnegie Mellon University). Gaussian is a federally registered
 trademark of Gaussian, Inc.
  
 This software contains proprietary and confidential information,
 including trade secrets, belonging to Gaussian, Inc.
  
 This software is provided under written license and may be
 used, copied, transmitted, or stored only in accord with that
 written license.
  
 The following legend is applicable only to US Government
 contracts under FAR:
  
                    RESTRICTED RIGHTS LEGEND
  
 Use, reproduction and disclosure by the US Government is
 subject to restrictions as set forth in subparagraphs (a)
 and (c) of the Commercial Computer Software - Restricted
 Rights clause in FAR 52.227-19.
  
 Gaussian, Inc.
 340 Quinnipiac St., Bldg. 40, Wallingford CT 06492
  
  
 ---------------------------------------------------------------
 Warning -- This program may not be used in any manner that
 competes with the business of Gaussian, Inc. or will provide
 assistance to any competitor of Gaussian, Inc.  The licensee
 of this program is prohibited from giving any competitor of
 Gaussian, Inc. access to this program.  By using this program,
 the user acknowledges that Gaussian, Inc. is engaged in the
 business of creating and licensing software in the field of
 computational chemistry and represents and warrants to the
 licensee that it is not a competitor of Gaussian, Inc. and that
 it will not use this program in any manner prohibited above.
 ---------------------------------------------------------------
  

 Cite this work as:
 Gaussian 09, Revision D.01,
 M. J. Frisch, G. W. Trucks, H. B. Schlegel, G. E. Scuseria, 
 M. A. Robb, J. R. Cheeseman, G. Scalmani, V. Barone, B. Mennucci, 
 G. A. Petersson, H. Nakatsuji, M. Caricato, X. Li, H. P. Hratchian, 
 A. F. Izmaylov, J. Bloino, G. Zheng, J. L. Sonnenberg, M. Hada, 
 M. Ehara, K. Toyota, R. Fukuda, J. Hasegawa, M. Ishida, T. Nakajima, 
 Y. Honda, O. Kitao, H. Nakai, T. Vreven, J. A. Montgomery, Jr., 
 J. E. Peralta, F. Ogliaro, M. Bearpark, J. J. Heyd, E. Brothers, 
 K. N. Kudin, V. N. Staroverov, T. Keith, R. Kobayashi, J. Normand, 
 K. Raghavachari, A. Rendell, J. C. Burant, S. S. Iyengar, J. Tomasi, 
 M. Cossi, N. Rega, J. M. Millam, M. Klene, J. E. Knox, J. B. Cross, 
 V. Bakken, C. Adamo, J. Jaramillo, R. Gomperts, R. E. Stratmann, 
 O. Yazyev, A. J. Austin, R. Cammi, C. Pomelli, J. W. Ochterski, 
 R. L. Martin, K. Morokuma, V. G. Zakrzewski, G. A. Voth, 
 P. Salvador, J. J. Dannenberg, S. Dapprich, A. D. Daniels, 
 O. Farkas, J. B. Foresman, J. V. Ortiz, J. Cioslowski, 
 and D. J. Fox, Gaussian, Inc., Wallingford CT, 2013.
 
 ******************************************
 Gaussian 09:  EM64W-G09RevD.01 13-Apr-2013
                24-Aug-2018 
 ******************************************
 %Chk=Anth_384.chk
 %Mem=64GB
 %NProcShared=20
 Will use up to   20 processors via shared memory.
 -------------------------------------
 # RB3LYP/6-311++G** Opt Test prop=EFG
 -------------------------------------
 1/14=-1,18=20,19=15,26=3,38=1/1,3;
 2/9=110,12=2,17=6,18=5,40=1/2;
 3/5=4,6=6,7=1111,11=2,16=1,25=1,30=1,71=1,74=-5,116=1/1,2,3;
 4//1;
 5/5=2,38=5/2;
 6/7=2,8=2,9=2,10=2,14=1,28=1/1,2;
 7//1,2,3,16;
 1/14=-1,18=20,19=15,26=3/3(2);
 2/9=110/2;
 99//99;
 2/9=110/2;
 3/5=4,6=6,7=1111,11=2,16=1,25=1,30=1,71=1,74=-5,116=1/1,2,3;
 4/5=5,16=3,69=1/1;
 5/5=2,38=5/2;
 7//1,2,3,16;
 1/14=-1,18=20,19=15,26=3/3(-5);
 2/9=110/2;
 6/7=2,8=2,9=2,10=2,14=1,19=2,28=1/1,2;
 99/9=1/99;
 --------
 C16N4H18
 --------
 Symbolic Z-matrix:
 Charge =  2 Multiplicity = 1
 N                    -4.3534   -0.95358  -1.60625 
 C                    -5.44225  -0.94004  -2.60572 
 C                    -4.78794  -0.16335  -3.7563 
 N                    -3.43163   0.10076  -3.14434 
 C                    -3.2712   -0.37532  -1.93786 
 C                    -2.18594  -0.30315  -1.1354 
 C                    -2.19389  -0.85617   0.09445 
 C                    -1.1289   -0.79743   0.90895 
 C                     0.00143  -0.17877   0.52865 
 C                     0.03626   0.38103  -0.69272 
 C                    -1.04191   0.3135   -1.49862 
 N                     3.30415   0.03903   2.9733 
 C                     4.55624   0.1919    3.74407 
 C                     5.42823   0.97742   2.75554 
 N                     4.45484   1.10558   1.60678 
 C                     3.28815   0.55211   1.81038 
 C                     1.07623  -0.11384   1.33753 
 C                     2.22309   0.50091   0.97978 
 C                     2.23474   1.05463  -0.24891 
 C                     1.1705    0.99808  -1.06658 
 H                    -4.4814   -1.4197   -0.67828 
 H                    -5.70819  -1.98315  -2.8913 
 H                    -6.33326  -0.41733  -2.18955 
 H                    -5.31065   0.79562  -3.97622 
 H                    -4.68688  -0.77494  -4.68199 
 H                    -2.71531   0.61954  -3.66778 
 H                    -3.07309  -1.38467   0.49584 
 H                    -1.20182  -1.27105   1.90363 
 H                    -0.96057   0.78857  -2.489 
 H                     2.48073  -0.46657   3.37486 
 H                     4.35735   0.75856   4.68199 
 H                     4.97896  -0.81012   3.98399 
 H                     6.33326   0.40983   2.43931 
 H                     5.7123    1.98315   3.14151 
 H                     4.72677   1.59771   0.74652 
 H                     0.98262  -0.59242   2.32502 
 H                     3.12125   1.58008  -0.63809 
 H                     1.24623   1.47239  -2.06062 
 

 GradGradGradGradGradGradGradGradGradGradGradGradGradGradGradGradGradGrad
 Berny optimization.
 Initialization pass.
                           ----------------------------
                           !    Initial Parameters    !
                           ! (Angstroms and Degrees)  !
 --------------------------                            --------------------------
 ! Name  Definition              Value          Derivative Info.                !
 --------------------------------------------------------------------------------
 ! R1    R(1,2)                  1.4781         estimate D2E/DX2                !
 ! R2    R(1,5)                  1.271          estimate D2E/DX2                !
 ! R3    R(1,21)                 1.0463         estimate D2E/DX2                !
 ! R4    R(2,3)                  1.5347         estimate D2E/DX2                !
 ! R5    R(2,22)                 1.1137         estimate D2E/DX2                !
 ! R6    R(2,23)                 1.1137         estimate D2E/DX2                !
 ! R7    R(3,4)                  1.5112         estimate D2E/DX2                !
 ! R8    R(3,24)                 1.1141         estimate D2E/DX2                !
 ! R9    R(3,25)                 1.1141         estimate D2E/DX2                !
 ! R10   R(4,5)                  1.3069         estimate D2E/DX2                !
 ! R11   R(4,26)                 1.0277         estimate D2E/DX2                !
 ! R12   R(5,6)                  1.3516         estimate D2E/DX2                !
 ! R13   R(6,7)                  1.3485         estimate D2E/DX2                !
 ! R14   R(6,11)                 1.3494         estimate D2E/DX2                !
 ! R15   R(7,8)                  1.342          estimate D2E/DX2                !
 ! R16   R(7,27)                 1.1016         estimate D2E/DX2                !
 ! R17   R(8,9)                  1.3435         estimate D2E/DX2                !
 ! R18   R(8,28)                 1.1041         estimate D2E/DX2                !
 ! R19   R(9,10)                 1.344          estimate D2E/DX2                !
 ! R20   R(9,17)                 1.3467         estimate D2E/DX2                !
 ! R21   R(10,11)                1.3478         estimate D2E/DX2                !
 ! R22   R(10,20)                1.3443         estimate D2E/DX2                !
 ! R23   R(11,29)                1.1014         estimate D2E/DX2                !
 ! R24   R(12,13)                1.4782         estimate D2E/DX2                !
 ! R25   R(12,16)                1.2712         estimate D2E/DX2                !
 ! R26   R(12,30)                1.0464         estimate D2E/DX2                !
 ! R27   R(13,14)                1.5345         estimate D2E/DX2                !
 ! R28   R(13,31)                1.1137         estimate D2E/DX2                !
 ! R29   R(13,32)                1.1137         estimate D2E/DX2                !
 ! R30   R(14,15)                1.5112         estimate D2E/DX2                !
 ! R31   R(14,33)                1.1141         estimate D2E/DX2                !
 ! R32   R(14,34)                1.1141         estimate D2E/DX2                !
 ! R33   R(15,16)                1.3073         estimate D2E/DX2                !
 ! R34   R(15,35)                1.0277         estimate D2E/DX2                !
 ! R35   R(16,18)                1.3516         estimate D2E/DX2                !
 ! R36   R(17,18)                1.3495         estimate D2E/DX2                !
 ! R37   R(17,36)                1.1013         estimate D2E/DX2                !
 ! R38   R(18,19)                1.3477         estimate D2E/DX2                !
 ! R39   R(19,20)                1.3433         estimate D2E/DX2                !
 ! R40   R(19,37)                1.1016         estimate D2E/DX2                !
 ! R41   R(20,38)                1.104          estimate D2E/DX2                !
 ! A1    A(2,1,5)              116.5281         estimate D2E/DX2                !
 ! A2    A(2,1,21)             120.9088         estimate D2E/DX2                !
 ! A3    A(5,1,21)             122.5631         estimate D2E/DX2                !
 ! A4    A(1,2,3)              101.3918         estimate D2E/DX2                !
 ! A5    A(1,2,22)             109.9201         estimate D2E/DX2                !
 ! A6    A(1,2,23)             109.9371         estimate D2E/DX2                !
 ! A7    A(3,2,22)             112.5557         estimate D2E/DX2                !
 ! A8    A(3,2,23)             112.565          estimate D2E/DX2                !
 ! A9    A(22,2,23)            110.143          estimate D2E/DX2                !
 ! A10   A(2,3,4)               99.6426         estimate D2E/DX2                !
 ! A11   A(2,3,24)             112.5557         estimate D2E/DX2                !
 ! A12   A(2,3,25)             112.5692         estimate D2E/DX2                !
 ! A13   A(4,3,24)             110.5233         estimate D2E/DX2                !
 ! A14   A(4,3,25)             110.5483         estimate D2E/DX2                !
 ! A15   A(24,3,25)            110.5525         estimate D2E/DX2                !
 ! A16   A(3,4,5)              114.8556         estimate D2E/DX2                !
 ! A17   A(3,4,26)             120.4978         estimate D2E/DX2                !
 ! A18   A(5,4,26)             124.6466         estimate D2E/DX2                !
 ! A19   A(1,5,4)              107.5819         estimate D2E/DX2                !
 ! A20   A(1,5,6)              123.5752         estimate D2E/DX2                !
 ! A21   A(4,5,6)              128.843          estimate D2E/DX2                !
 ! A22   A(5,6,7)              120.986          estimate D2E/DX2                !
 ! A23   A(5,6,11)             123.0446         estimate D2E/DX2                !
 ! A24   A(7,6,11)             115.9694         estimate D2E/DX2                !
 ! A25   A(6,7,8)              122.0652         estimate D2E/DX2                !
 ! A26   A(6,7,27)             122.2622         estimate D2E/DX2                !
 ! A27   A(8,7,27)             115.6726         estimate D2E/DX2                !
 ! A28   A(7,8,9)              121.0645         estimate D2E/DX2                !
 ! A29   A(7,8,28)             118.3972         estimate D2E/DX2                !
 ! A30   A(9,8,28)             120.5382         estimate D2E/DX2                !
 ! A31   A(8,9,10)             118.0893         estimate D2E/DX2                !
 ! A32   A(8,9,17)             121.576          estimate D2E/DX2                !
 ! A33   A(10,9,17)            120.3347         estimate D2E/DX2                !
 ! A34   A(9,10,11)            120.1183         estimate D2E/DX2                !
 ! A35   A(9,10,20)            117.7623         estimate D2E/DX2                !
 ! A36   A(11,10,20)           122.1194         estimate D2E/DX2                !
 ! A37   A(6,11,10)            122.6933         estimate D2E/DX2                !
 ! A38   A(6,11,29)            120.1148         estimate D2E/DX2                !
 ! A39   A(10,11,29)           117.192          estimate D2E/DX2                !
 ! A40   A(13,12,16)           116.4826         estimate D2E/DX2                !
 ! A41   A(13,12,30)           121.0918         estimate D2E/DX2                !
 ! A42   A(16,12,30)           122.4256         estimate D2E/DX2                !
 ! A43   A(12,13,14)           101.4421         estimate D2E/DX2                !
 ! A44   A(12,13,31)           109.9052         estimate D2E/DX2                !
 ! A45   A(12,13,32)           109.9245         estimate D2E/DX2                !
 ! A46   A(14,13,31)           112.5537         estimate D2E/DX2                !
 ! A47   A(14,13,32)           112.5616         estimate D2E/DX2                !
 ! A48   A(31,13,32)           110.1292         estimate D2E/DX2                !
 ! A49   A(13,14,15)            99.6186         estimate D2E/DX2                !
 ! A50   A(13,14,33)           112.5619         estimate D2E/DX2                !
 ! A51   A(13,14,34)           112.5722         estimate D2E/DX2                !
 ! A52   A(15,14,33)           110.5296         estimate D2E/DX2                !
 ! A53   A(15,14,34)           110.5514         estimate D2E/DX2                !
 ! A54   A(33,14,34)           110.5558         estimate D2E/DX2                !
 ! A55   A(14,15,16)           114.8709         estimate D2E/DX2                !
 ! A56   A(14,15,35)           120.4311         estimate D2E/DX2                !
 ! A57   A(16,15,35)           124.698          estimate D2E/DX2                !
 ! A58   A(12,16,15)           107.5857         estimate D2E/DX2                !
 ! A59   A(12,16,18)           123.8358         estimate D2E/DX2                !
 ! A60   A(15,16,18)           128.5785         estimate D2E/DX2                !
 ! A61   A(9,17,18)            122.7504         estimate D2E/DX2                !
 ! A62   A(9,17,36)            116.7277         estimate D2E/DX2                !
 ! A63   A(18,17,36)           120.5219         estimate D2E/DX2                !
 ! A64   A(16,18,17)           121.6019         estimate D2E/DX2                !
 ! A65   A(16,18,19)           122.5382         estimate D2E/DX2                !
 ! A66   A(17,18,19)           115.8599         estimate D2E/DX2                !
 ! A67   A(18,19,20)           122.0596         estimate D2E/DX2                !
 ! A68   A(18,19,37)           121.6694         estimate D2E/DX2                !
 ! A69   A(20,19,37)           116.271          estimate D2E/DX2                !
 ! A70   A(10,20,19)           121.2331         estimate D2E/DX2                !
 ! A71   A(10,20,38)           120.365          estimate D2E/DX2                !
 ! A72   A(19,20,38)           118.4019         estimate D2E/DX2                !
 ! D1    D(5,1,2,3)             -0.0899         estimate D2E/DX2                !
 ! D2    D(5,1,2,22)           119.1987         estimate D2E/DX2                !
 ! D3    D(5,1,2,23)          -119.3965         estimate D2E/DX2                !
 ! D4    D(21,1,2,3)           179.954          estimate D2E/DX2                !
 ! D5    D(21,1,2,22)          -60.7575         estimate D2E/DX2                !
 ! D6    D(21,1,2,23)           60.6473         estimate D2E/DX2                !
 ! D7    D(2,1,5,4)              0.0405         estimate D2E/DX2                !
 ! D8    D(2,1,5,6)           -179.9632         estimate D2E/DX2                !
 ! D9    D(21,1,5,4)           179.9959         estimate D2E/DX2                !
 ! D10   D(21,1,5,6)            -0.0078         estimate D2E/DX2                !
 ! D11   D(1,2,3,4)              0.0896         estimate D2E/DX2                !
 ! D12   D(1,2,3,24)          -117.0164         estimate D2E/DX2                !
 ! D13   D(1,2,3,25)           117.2298         estimate D2E/DX2                !
 ! D14   D(22,2,3,4)          -117.2996         estimate D2E/DX2                !
 ! D15   D(22,2,3,24)          125.5944         estimate D2E/DX2                !
 ! D16   D(22,2,3,25)           -0.1594         estimate D2E/DX2                !
 ! D17   D(23,2,3,4)           117.5028         estimate D2E/DX2                !
 ! D18   D(23,2,3,24)            0.3968         estimate D2E/DX2                !
 ! D19   D(23,2,3,25)         -125.357          estimate D2E/DX2                !
 ! D20   D(2,3,4,5)             -0.0823         estimate D2E/DX2                !
 ! D21   D(2,3,4,26)           179.9495         estimate D2E/DX2                !
 ! D22   D(24,3,4,5)           118.5411         estimate D2E/DX2                !
 ! D23   D(24,3,4,26)          -61.4271         estimate D2E/DX2                !
 ! D24   D(25,3,4,5)          -118.7309         estimate D2E/DX2                !
 ! D25   D(25,3,4,26)           61.3009         estimate D2E/DX2                !
 ! D26   D(3,4,5,1)              0.0316         estimate D2E/DX2                !
 ! D27   D(3,4,5,6)           -179.9644         estimate D2E/DX2                !
 ! D28   D(26,4,5,1)           179.9983         estimate D2E/DX2                !
 ! D29   D(26,4,5,6)             0.0023         estimate D2E/DX2                !
 ! D30   D(1,5,6,7)             -0.013          estimate D2E/DX2                !
 ! D31   D(1,5,6,11)           179.9861         estimate D2E/DX2                !
 ! D32   D(4,5,6,7)            179.9825         estimate D2E/DX2                !
 ! D33   D(4,5,6,11)            -0.0184         estimate D2E/DX2                !
 ! D34   D(5,6,7,8)           -179.9999         estimate D2E/DX2                !
 ! D35   D(5,6,7,27)            -0.004          estimate D2E/DX2                !
 ! D36   D(11,6,7,8)             0.0009         estimate D2E/DX2                !
 ! D37   D(11,6,7,27)          179.9968         estimate D2E/DX2                !
 ! D38   D(5,6,11,10)         -179.9873         estimate D2E/DX2                !
 ! D39   D(5,6,11,29)           -0.0008         estimate D2E/DX2                !
 ! D40   D(7,6,11,10)            0.0119         estimate D2E/DX2                !
 ! D41   D(7,6,11,29)          179.9983         estimate D2E/DX2                !
 ! D42   D(6,7,8,9)             -0.0092         estimate D2E/DX2                !
 ! D43   D(6,7,8,28)           179.9973         estimate D2E/DX2                !
 ! D44   D(27,7,8,9)           179.9947         estimate D2E/DX2                !
 ! D45   D(27,7,8,28)            0.0012         estimate D2E/DX2                !
 ! D46   D(7,8,9,10)             0.0046         estimate D2E/DX2                !
 ! D47   D(7,8,9,17)          -179.991          estimate D2E/DX2                !
 ! D48   D(28,8,9,10)          179.998          estimate D2E/DX2                !
 ! D49   D(28,8,9,17)            0.0024         estimate D2E/DX2                !
 ! D50   D(8,9,10,11)            0.0078         estimate D2E/DX2                !
 ! D51   D(8,9,10,20)         -179.9884         estimate D2E/DX2                !
 ! D52   D(17,9,10,11)        -179.9965         estimate D2E/DX2                !
 ! D53   D(17,9,10,20)           0.0073         estimate D2E/DX2                !
 ! D54   D(8,9,17,18)          179.983          estimate D2E/DX2                !
 ! D55   D(8,9,17,36)           -0.0042         estimate D2E/DX2                !
 ! D56   D(10,9,17,18)          -0.0125         estimate D2E/DX2                !
 ! D57   D(10,9,17,36)        -179.9997         estimate D2E/DX2                !
 ! D58   D(9,10,11,6)           -0.0166         estimate D2E/DX2                !
 ! D59   D(9,10,11,29)         179.9965         estimate D2E/DX2                !
 ! D60   D(20,10,11,6)         179.9795         estimate D2E/DX2                !
 ! D61   D(20,10,11,29)         -0.0074         estimate D2E/DX2                !
 ! D62   D(9,10,20,19)           0.0038         estimate D2E/DX2                !
 ! D63   D(9,10,20,38)         179.9955         estimate D2E/DX2                !
 ! D64   D(11,10,20,19)       -179.9924         estimate D2E/DX2                !
 ! D65   D(11,10,20,38)         -0.0007         estimate D2E/DX2                !
 ! D66   D(16,12,13,14)         -0.0733         estimate D2E/DX2                !
 ! D67   D(16,12,13,31)        119.2331         estimate D2E/DX2                !
 ! D68   D(16,12,13,32)       -119.3972         estimate D2E/DX2                !
 ! D69   D(30,12,13,14)        179.9646         estimate D2E/DX2                !
 ! D70   D(30,12,13,31)        -60.729          estimate D2E/DX2                !
 ! D71   D(30,12,13,32)         60.6408         estimate D2E/DX2                !
 ! D72   D(13,12,16,15)          0.028          estimate D2E/DX2                !
 ! D73   D(13,12,16,18)       -179.9704         estimate D2E/DX2                !
 ! D74   D(30,12,16,15)        179.9895         estimate D2E/DX2                !
 ! D75   D(30,12,16,18)         -0.0088         estimate D2E/DX2                !
 ! D76   D(12,13,14,15)          0.0774         estimate D2E/DX2                !
 ! D77   D(12,13,14,33)       -117.025          estimate D2E/DX2                !
 ! D78   D(12,13,14,34)        117.2092         estimate D2E/DX2                !
 ! D79   D(31,13,14,15)       -117.3223         estimate D2E/DX2                !
 ! D80   D(31,13,14,33)        125.5752         estimate D2E/DX2                !
 ! D81   D(31,13,14,34)         -0.1905         estimate D2E/DX2                !
 ! D82   D(32,13,14,15)        117.5031         estimate D2E/DX2                !
 ! D83   D(32,13,14,33)          0.4006         estimate D2E/DX2                !
 ! D84   D(32,13,14,34)       -125.3651         estimate D2E/DX2                !
 ! D85   D(13,14,15,16)         -0.0752         estimate D2E/DX2                !
 ! D86   D(13,14,15,35)        179.9528         estimate D2E/DX2                !
 ! D87   D(33,14,15,16)        118.5453         estimate D2E/DX2                !
 ! D88   D(33,14,15,35)        -61.4267         estimate D2E/DX2                !
 ! D89   D(34,14,15,16)       -118.716          estimate D2E/DX2                !
 ! D90   D(34,14,15,35)         61.312          estimate D2E/DX2                !
 ! D91   D(14,15,16,12)          0.0343         estimate D2E/DX2                !
 ! D92   D(14,15,16,18)       -179.9675         estimate D2E/DX2                !
 ! D93   D(35,15,16,12)       -179.9951         estimate D2E/DX2                !
 ! D94   D(35,15,16,18)          0.0031         estimate D2E/DX2                !
 ! D95   D(12,16,18,17)         -0.0143         estimate D2E/DX2                !
 ! D96   D(12,16,18,19)        179.9868         estimate D2E/DX2                !
 ! D97   D(15,16,18,17)        179.9878         estimate D2E/DX2                !
 ! D98   D(15,16,18,19)         -0.0112         estimate D2E/DX2                !
 ! D99   D(9,17,18,16)        -179.9931         estimate D2E/DX2                !
 ! D100  D(9,17,18,19)           0.0059         estimate D2E/DX2                !
 ! D101  D(36,17,18,16)         -0.0064         estimate D2E/DX2                !
 ! D102  D(36,17,18,19)        179.9926         estimate D2E/DX2                !
 ! D103  D(16,18,19,20)       -179.9955         estimate D2E/DX2                !
 ! D104  D(16,18,19,37)          0.0036         estimate D2E/DX2                !
 ! D105  D(17,18,19,20)          0.0055         estimate D2E/DX2                !
 ! D106  D(17,18,19,37)       -179.9954         estimate D2E/DX2                !
 ! D107  D(18,19,20,10)         -0.0105         estimate D2E/DX2                !
 ! D108  D(18,19,20,38)        179.9976         estimate D2E/DX2                !
 ! D109  D(37,19,20,10)        179.9903         estimate D2E/DX2                !
 ! D110  D(37,19,20,38)         -0.0015         estimate D2E/DX2                !
 --------------------------------------------------------------------------------
 Trust Radius=3.00D-01 FncErr=1.00D-07 GrdErr=1.00D-06
 Number of steps in this run=    228 maximum allowed number of steps=    228.
 GradGradGradGradGradGradGradGradGradGradGradGradGradGradGradGradGradGrad

                          Input orientation:                          
 ---------------------------------------------------------------------
 Center     Atomic      Atomic             Coordinates (Angstroms)
 Number     Number       Type             X           Y           Z
 ---------------------------------------------------------------------
      1          7           0       -4.353398   -0.953584   -1.606253
      2          6           0       -5.442250   -0.940037   -2.605722
      3          6           0       -4.787939   -0.163353   -3.756296
      4          7           0       -3.431626    0.100755   -3.144337
      5          6           0       -3.271201   -0.375316   -1.937862
      6          6           0       -2.185939   -0.303150   -1.135399
      7          6           0       -2.193893   -0.856169    0.094449
      8          6           0       -1.128896   -0.797429    0.908949
      9          6           0        0.001425   -0.178772    0.528646
     10          6           0        0.036262    0.381027   -0.692724
     11          6           0       -1.041915    0.313504   -1.498623
     12          7           0        3.304147    0.039034    2.973300
     13          6           0        4.556238    0.191903    3.744065
     14          6           0        5.428233    0.977419    2.755544
     15          7           0        4.454836    1.105577    1.606781
     16          6           0        3.288147    0.552114    1.810379
     17          6           0        1.076226   -0.113837    1.337525
     18          6           0        2.223090    0.500908    0.979782
     19          6           0        2.234738    1.054628   -0.248905
     20          6           0        1.170498    0.998077   -1.066583
     21          1           0       -4.481403   -1.419701   -0.678276
     22          1           0       -5.708195   -1.983153   -2.891295
     23          1           0       -6.333261   -0.417330   -2.189553
     24          1           0       -5.310652    0.795616   -3.976217
     25          1           0       -4.686882   -0.774943   -4.681993
     26          1           0       -2.715314    0.619537   -3.667784
     27          1           0       -3.073090   -1.384671    0.495839
     28          1           0       -1.201815   -1.271050    1.903632
     29          1           0       -0.960574    0.788565   -2.489002
     30          1           0        2.480731   -0.466571    3.374857
     31          1           0        4.357350    0.758562    4.681993
     32          1           0        4.978955   -0.810124    3.983991
     33          1           0        6.333261    0.409827    2.439314
     34          1           0        5.712302    1.983153    3.141511
     35          1           0        4.726768    1.597708    0.746515
     36          1           0        0.982618   -0.592420    2.325024
     37          1           0        3.121251    1.580075   -0.638089
     38          1           0        1.246228    1.472388   -2.060622
 ---------------------------------------------------------------------
                    Distance matrix (angstroms):
                    1          2          3          4          5
     1  N    0.000000
     2  C    1.478080   0.000000
     3  C    2.331518   1.534660   0.000000
     4  N    2.080143   2.327222   1.511235   0.000000
     5  C    1.271027   2.340598   2.377420   1.306890   0.000000
     6  C    2.311417   3.629192   3.695815   2.398063   1.351647
     7  C    2.750516   4.224900   4.694391   3.596863   2.349915
     8  C    4.092437   5.565813   5.962815   4.747465   3.587755
     9  C    4.911477   6.327510   6.426428   5.035353   4.102727
    10  C    4.678123   5.951375   5.740622   4.256196   3.614102
    11  C    3.547255   4.707439   4.399679   2.909357   2.374262
    12  N    8.977505  10.420342  10.526646   9.099447   8.217445
    13  C   10.455604  11.898355  11.987296  10.548192   9.688903
    14  C   10.882755  12.271398  12.168631  10.680554   9.976878
    15  N    9.599412  10.949065  10.761118   9.261699   8.628394
    16  C    8.504923   9.896883   9.834782   8.361117   7.611471
    17  C    6.233123   7.663050   7.767747   6.360335   5.449464
    18  C    7.214799   8.584265   8.486825   7.010299   6.282328
    19  C    7.019889   8.274625   7.943756   6.434367   5.934027
    20  C    5.883337   7.060713   6.639763   5.128527   4.730119
    21  H    1.046323   2.206434   3.338650   3.081440   2.035162
    22  H    2.132327   1.113719   2.215123   3.096687   3.071338
    23  H    2.132525   1.113696   2.215222   3.098308   3.072674
    24  H    3.097219   2.215416   1.114099   2.169238   3.112127
    25  H    3.098919   2.215567   1.114078   2.169539   3.113536
    26  H    3.067236   3.316086   2.217324   1.027733   2.071563
    27  H    2.498763   3.928142   4.744784   3.947901   2.642148
    28  H    4.727849   6.198801   6.791323   5.686466   4.454411
    29  H    3.914790   4.804905   4.142572   2.647384   2.645255
    30  H    8.470771   9.938064  10.187190   8.819167   7.830583
    31  H   10.878907  12.329971  12.477618  11.061297  10.163806
    32  H   10.879532  12.330560  12.478885  11.062578  10.164766
    33  H   11.507831  12.881661  12.743438  11.252809  10.584036
    34  H   11.510170  12.884089  12.745285  11.254631  10.586110
    35  H    9.720804  11.003934  10.672689   9.161822   8.664076
    36  H    6.637654   8.106295   8.394396   7.062574   6.026135
    37  H    7.951550   9.140902   8.678597   7.170067   6.810022
    38  H    6.119445   7.131106   6.477818   4.993810   4.882238
                    6          7          8          9         10
     6  C    0.000000
     7  C    1.348488   0.000000
     8  C    2.353935   1.342043   0.000000
     9  C    2.751196   2.338122   1.343500   0.000000
    10  C    2.366904   2.669061   2.304714   1.343999   0.000000
    11  C    1.349439   2.287590   2.652949   2.332534   1.347775
    12  N    6.865824   6.270376   4.961158   4.114820   4.922983
    13  C    8.337338   7.744832   6.429417   5.587722   6.336485
    14  C    8.646092   8.278906   7.039598   5.978804   6.428031
    15  N    7.321472   7.095153   5.940241   4.758655   5.033537
    16  C    6.274926   5.914426   4.705753   3.602718   4.107256
    17  C    4.097916   3.576307   2.348093   1.346736   2.334165
    18  C    4.955808   4.704807   3.595345   2.366703   2.755697
    19  C    4.708696   4.835474   4.010583   2.667124   2.341796
    20  C    3.600500   4.013147   3.523320   2.301404   1.344252
    21  H    2.593222   2.479390   3.761091   4.805446   4.863345
    22  H    4.279237   4.747113   6.067765   6.895763   6.589526
    23  H    4.280719   4.748011   6.068822   6.897374   6.591562
    24  H    4.363641   5.386363   6.624932   7.032879   6.288299
    25  H    4.365276   5.388505   6.627096   7.034657   6.289565
    26  H    2.746737   4.074799   5.046880   5.062410   4.059438
    27  H    2.148875   1.101551   2.072535   3.302713   3.768082
    28  H    3.337820   2.104635   1.104096   2.128719   3.317116
    29  H    2.127346   3.301582   3.753636   3.311704   2.094370
    30  H    6.492066   5.724070   4.384014   3.785592   4.820691
    31  H    8.819519   8.159148   6.837826   6.091221   6.906657
    32  H    8.820481   8.159682   6.838266   6.092111   6.908018
    33  H    9.266266   8.933840   7.712540   6.639974   7.032971
    34  H    9.268298   8.936121   7.714788   6.641920   7.034600
    35  H    7.412178   7.371720   6.328654   5.052941   5.054955
    36  H    4.700847   3.890405   2.550645   2.088257   3.309077
    37  H    5.653328   5.892593   5.109756   3.766713   3.310266
    38  H    3.973455   4.679844   4.428503   3.313634   2.127494
                   11         12         13         14         15
    11  C    0.000000
    12  N    6.241930   0.000000
    13  C    7.670716   1.478235   0.000000
    14  C    7.771842   2.332322   1.534466   0.000000
    15  N    6.362797   2.080618   2.326600   1.511153   0.000000
    16  C    5.454894   1.271178   2.340288   2.377854   1.307263
    17  C    3.565512   2.768169   4.242098   4.705484   3.602010
    18  C    4.103397   2.314331   3.630472   3.695042   2.395713
    19  C    3.584343   3.543681   4.698666   4.385326   2.893959
    20  C    2.355859   4.668284   5.937633   5.721660   4.236190
    21  H    3.937899   8.722196  10.189864  10.758169   9.563205
    22  H    5.384082  10.940979  12.414405  12.832451  11.535170
    23  H    5.386079  10.942712  12.416126  12.834798  11.537523
    24  H    4.959135  11.094276  12.542836  12.675698  11.253031
    25  H    4.960277  11.096063  12.544661  12.676880  11.254157
    26  H    2.756661   8.981920  10.392009  10.378082   8.914501
    27  H    3.314717   6.988126   8.440569   9.108141   8.006572
    28  H    3.756557   4.812920   6.219534   7.052581   6.142815
    29  H    1.101431   6.970393   8.345199   8.267877   6.797249
    30  H    6.063692   1.046374   2.208536   3.340123   3.081369
    31  H    8.218890   2.132273   1.113718   2.214925   3.096264
    32  H    8.220248   2.132498   1.113693   2.215004   3.097699
    33  H    8.361211   3.098090   2.215328   1.114109   2.169253
    34  H    8.362895   3.099533   2.215430   1.114077   2.169506
    35  H    6.321988   3.067880   3.315219   2.216531   1.027715
    36  H    4.420374   2.491685   3.924232   4.734262   3.931331
    37  H    4.435839   3.930698   4.815546   4.147542   2.653872
    38  H    2.625729   5.624047   6.803690   6.397626   4.886672
                   16         17         18         19         20
    16  C    0.000000
    17  C    2.357897   0.000000
    18  C    1.351614   1.349514   0.000000
    19  C    2.367032   2.285655   1.347744   0.000000
    20  C    3.600032   2.650467   2.354302   1.343280   0.000000
    21  H    8.393293   6.054418   7.168551   7.170301   6.159579
    22  H   10.462671   8.210093   9.168483   8.905084   7.715810
    23  H   10.464739   8.211753   9.170550   8.907490   7.718215
    24  H   10.367417   8.357940   9.022530   8.419789   7.107198
    25  H   10.368851   8.359729   9.023924   8.420714   7.108002
    26  H    8.127506   6.321925   6.782461   6.031671   4.691383
    27  H    6.778236   4.420439   5.642617   5.888791   5.111427
    28  H    4.846894   2.617077   3.965263   4.674622   4.427074
    29  H    6.049150   4.427775   4.717089   3.911374   2.570727
    30  H    2.034018   2.499555   2.595916   3.937793   4.856778
    31  H    3.071153   4.765745   4.281100   5.376513   6.577197
    32  H    3.072314   4.766539   4.282391   5.378237   6.578923
    33  H    3.112639   5.396719   4.362572   4.943701   6.268291
    34  H    3.113890   5.398605   4.364026   4.944748   6.269483
    35  H    2.072367   4.074940   2.743317   2.737884   4.036575
    36  H    2.624935   1.101344   2.131622   3.302375   3.750730
    37  H    2.660743   3.309761   2.142149   1.101573   2.080328
    38  H    4.472246   3.753986   3.337977   2.105705   1.104002
                   21         22         23         24         25
    21  H    0.000000
    22  H    2.592287   0.000000
    23  H    2.591927   1.826185   0.000000
    24  H    4.058534   3.009427   2.389380   0.000000
    25  H    4.060503   2.389446   3.008439   1.831356   0.000000
    26  H    4.026751   4.041567   4.043489   2.619526   2.619213
    27  H    1.833881   4.332971   4.333104   5.455238   5.457659
    28  H    4.176607   6.618601   6.619270   7.465003   7.467414
    29  H    4.533366   5.512183   5.514492   4.597286   4.597732
    30  H    8.112192  10.422245  10.423605  10.785966  10.788077
    31  H   10.564131  12.891349  12.762838  12.978299  13.108547
    32  H   10.564407  12.761690  12.893144  13.107987  12.981869
    33  H   11.402785  13.384260  13.511158  13.299947  13.174227
    34  H   11.405341  13.511258  13.389479  13.174893  13.302531
    35  H    9.794141  11.616569  11.619170  11.121931  11.122724
    36  H    6.289653   8.597157   8.598497   9.013186   9.015256
    37  H    8.173165   9.784306   9.786954   9.102498   9.103088
    38  H    6.563598   7.809916   7.812574   6.864415   6.864683
                   26         27         28         29         30
    26  H    0.000000
    27  H    4.634718   0.000000
    28  H    6.075004   2.344453   0.000000
    29  H    2.120663   4.253816   4.857514   0.000000
    30  H    8.819144   6.322704   4.046336   6.913956   0.000000
    31  H   10.943522   8.793678   6.537808   8.927731   2.594466
    32  H   10.945107   8.793903   6.537757   8.929359   2.594262
    33  H   10.918669   9.771221   7.738842   8.810889   4.060210
    34  H   10.920195   9.773686   7.741266   8.812320   4.061853
    35  H    8.707895   8.354353   6.687061   6.593113   4.026675
    36  H    7.145438   4.519109   2.325910   5.371961   1.833666
    37  H    6.645839   6.960271   5.768722   4.551226   4.550029
    38  H    4.359374   5.775360   5.406910   2.349702   5.901525
                   31         32         33         34         35
    31  H    0.000000
    32  H    1.826027   0.000000
    33  H    3.009227   2.389237   0.000000
    34  H    2.389268   3.008316   1.831400   0.000000
    35  H    4.040869   4.042586   2.618673   2.618368   0.000000
    36  H    4.332352   4.332468   5.444901   5.447030   4.615952
    37  H    5.523232   5.525191   4.599663   4.600151   2.120171
    38  H    7.459992   7.461934   6.874326   6.875237   4.473241
                   36         37         38
    36  H    0.000000
    37  H    4.251297   0.000000
    38  H    4.854566   2.356036   0.000000
 Stoichiometry    C16H18N4(2+)
 Framework group  C1[X(C16H18N4)]
 Deg. of freedom   108
 Full point group                 C1      NOp   1
 Largest Abelian subgroup         C1      NOp   1
 Largest concise Abelian subgroup C1      NOp   1
                         Standard orientation:                         
 ---------------------------------------------------------------------
 Center     Atomic      Atomic             Coordinates (Angstroms)
 Number     Number       Type             X           Y           Z
 ---------------------------------------------------------------------
      1          7           0        4.625645   -0.998321    0.000509
      2          6           0        6.060373   -0.642968    0.001489
      3          6           0        5.992918    0.890208   -0.000810
      4          7           0        4.493348    1.077611   -0.000319
      5          6           0        3.801207   -0.030948    0.000025
      6          6           0        2.459248   -0.192485   -0.000157
      7          6           0        1.908147   -1.423220   -0.000088
      8          6           0        0.578980   -1.608678   -0.000268
      9          6           0       -0.266653   -0.564696   -0.000342
     10          6           0        0.256394    0.673349   -0.000326
     11          6           0        1.593497    0.842627   -0.000397
     12          7           0       -4.351653   -1.059182   -0.000322
     13          6           0       -5.829549   -1.090833   -0.000785
     14          6           0       -6.166086    0.406272    0.001303
     15          7           0       -4.767830    0.979388    0.000520
     16          6           0       -3.809294    0.090487    0.000051
     17          6           0       -1.602076   -0.738888   -0.000343
     18          6           0       -2.472808    0.292138   -0.000080
     19          6           0       -1.925533    1.523764    0.000062
     20          6           0       -0.595658    1.713070   -0.000160
     21          1           0        4.319769   -1.998936    0.000923
     22          1           0        6.550896   -1.047630    0.915823
     23          1           0        6.553149   -1.050429   -0.910359
     24          1           0        6.442002    1.336353   -0.917595
     25          1           0        6.443433    1.339397    0.913758
     26          1           0        4.085608    2.021000   -0.000764
     27          1           0        2.517989   -2.340557    0.000051
     28          1           0        0.193147   -2.643164   -0.000244
     29          1           0        1.969786    1.877787   -0.000440
     30          1           0       -3.792232   -1.943460   -0.000900
     31          1           0       -6.197412   -1.610077   -0.914805
     32          1           0       -6.198266   -1.612950    0.911220
     33          1           0       -6.716198    0.719463    0.918104
     34          1           0       -6.718543    0.721666   -0.913293
     35          1           0       -4.622253    1.996740    0.000822
     36          1           0       -1.966014   -1.778363   -0.000351
     37          1           0       -2.547449    2.432986    0.000354
     38          1           0       -0.212634    2.748498   -0.000065
 ---------------------------------------------------------------------
 Rotational constants (GHZ):      1.6727076      0.1265898      0.1180542
 Standard basis: 6-311++G(d,p) (5D, 7F)
 There are   586 symmetry adapted cartesian basis functions of A   symmetry.
 There are   566 symmetry adapted basis functions of A   symmetry.
   566 basis functions,   882 primitive gaussians,   586 cartesian basis functions
    70 alpha electrons       70 beta electrons
       nuclear repulsion energy      1459.0242542585 Hartrees.
 NAtoms=   38 NActive=   38 NUniq=   38 SFac= 1.00D+00 NAtFMM=   60 NAOKFM=F Big=F
 Integral buffers will be    131072 words long.
 Raffenetti 2 integral format.
 Two-electron integral symmetry is turned on.
 One-electron integrals computed using PRISM.
 NBasis=   566 RedAO= T EigKep=  1.10D-06  NBF=   566
 NBsUse=   556 1.00D-06 EigRej=  9.25D-07 NBFU=   556
 ExpMin= 3.60D-02 ExpMax= 6.29D+03 ExpMxC= 9.49D+02 IAcc=3 IRadAn=         5 AccDes= 0.00D+00
 Harris functional with IExCor=  402 and IRadAn=       5 diagonalized for initial guess.
 HarFok:  IExCor=  402 AccDes= 0.00D+00 IRadAn=         5 IDoV= 1 UseB2=F ITyADJ=14
 ICtDFT=  3500011 ScaDFX=  1.000000  1.000000  1.000000  1.000000
 FoFCou: FMM=F IPFlag=           0 FMFlag=      100000 FMFlg1=           0
         NFxFlg=           0 DoJE=T BraDBF=F KetDBF=T FulRan=T
         wScrn=  0.000000 ICntrl=     500 IOpCl=  0 I1Cent=   200000004 NGrid=           0
         NMat0=    1 NMatS0=      1 NMatT0=    0 NMatD0=    1 NMtDS0=    0 NMtDT0=    0
 Petite list used in FoFCou.
 Requested convergence on RMS density matrix=1.00D-08 within 128 cycles.
 Requested convergence on MAX density matrix=1.00D-06.
 Requested convergence on             energy=1.00D-06.
 No special actions if energy rises.
 SCF Done:  E(RB3LYP) =  -839.190784551     A.U. after   14 cycles
            NFock= 14  Conv=0.38D-08     -V/T= 2.0017

 **********************************************************************

            Population analysis using the SCF density.

 **********************************************************************

 Orbital symmetries:
       Occupied  (A) (A) (A) (A) (A) (A) (A) (A) (A) (A) (A) (A)
                 (A) (A) (A) (A) (A) (A) (A) (A) (A) (A) (A) (A)
                 (A) (A) (A) (A) (A) (A) (A) (A) (A) (A) (A) (A)
                 (A) (A) (A) (A) (A) (A) (A) (A) (A) (A) (A) (A)
                 (A) (A) (A) (A) (A) (A) (A) (A) (A) (A) (A) (A)
                 (A) (A) (A) (A) (A) (A) (A) (A) (A) (A)
       Virtual   (A) (A) (A) (A) (A) (A) (A) (A) (A) (A) (A) (A)
                 (A) (A) (A) (A) (A) (A) (A) (A) (A) (A) (A) (A)
                 (A) (A) (A) (A) (A) (A) (A) (A) (A) (A) (A) (A)
                 (A) (A) (A) (A) (A) (A) (A) (A) (A) (A) (A) (A)
                 (A) (A) (A) (A) (A) (A) (A) (A) (A) (A) (A) (A)
                 (A) (A) (A) (A) (A) (A) (A) (A) (A) (A) (A) (A)
                 (A) (A) (A) (A) (A) (A) (A) (A) (A) (A) (A) (A)
                 (A) (A) (A) (A) (A) (A) (A) (A) (A) (A) (A) (A)
                 (A) (A) (A) (A) (A) (A) (A) (A) (A) (A) (A) (A)
                 (A) (A) (A) (A) (A) (A) (A) (A) (A) (A) (A) (A)
                 (A) (A) (A) (A) (A) (A) (A) (A) (A) (A) (A) (A)
                 (A) (A) (A) (A) (A) (A) (A) (A) (A) (A) (A) (A)
                 (A) (A) (A) (A) (A) (A) (A) (A) (A) (A) (A) (A)
                 (A) (A) (A) (A) (A) (A) (A) (A) (A) (A) (A) (A)
                 (A) (A) (A) (A) (A) (A) (A) (A) (A) (A) (A) (A)
                 (A) (A) (A) (A) (A) (A) (A) (A) (A) (A) (A) (A)
                 (A) (A) (A) (A) (A) (A) (A) (A) (A) (A) (A) (A)
                 (A) (A) (A) (A) (A) (A) (A) (A) (A) (A) (A) (A)
                 (A) (A) (A) (A) (A) (A) (A) (A) (A) (A) (A) (A)
                 (A) (A) (A) (A) (A) (A) (A) (A) (A) (A) (A) (A)
                 (A) (A) (A) (A) (A) (A) (A) (A) (A) (A) (A) (A)
                 (A) (A) (A) (A) (A) (A) (A) (A) (A) (A) (A) (A)
                 (A) (A) (A) (A) (A) (A) (A) (A) (A) (A) (A) (A)
                 (A) (A) (A) (A) (A) (A) (A) (A) (A) (A) (A) (A)
                 (A) (A) (A) (A) (A) (A) (A) (A) (A) (A) (A) (A)
                 (A) (A) (A) (A) (A) (A) (A) (A) (A) (A) (A) (A)
                 (A) (A) (A) (A) (A) (A) (A) (A) (A) (A) (A) (A)
                 (A) (A) (A) (A) (A) (A) (A) (A) (A) (A) (A) (A)
                 (A) (A) (A) (A) (A) (A) (A) (A) (A) (A) (A) (A)
                 (A) (A) (A) (A) (A) (A) (A) (A) (A) (A) (A) (A)
                 (A) (A) (A) (A) (A) (A) (A) (A) (A) (A) (A) (A)
                 (A) (A) (A) (A) (A) (A) (A) (A) (A) (A) (A) (A)
                 (A) (A) (A) (A) (A) (A) (A) (A) (A) (A) (A) (A)
                 (A) (A) (A) (A) (A) (A) (A) (A) (A) (A) (A) (A)
                 (A) (A) (A) (A) (A) (A) (A) (A) (A) (A) (A) (A)
                 (A) (A) (A) (A) (A) (A) (A) (A) (A) (A) (A) (A)
                 (A) (A) (A) (A) (A) (A) (A) (A) (A) (A) (A) (A)
                 (A) (A) (A) (A) (A) (A) (A) (A) (A) (A) (A) (A)
                 (A) (A) (A) (A) (A) (A) (A) (A) (A) (A) (A) (A)
                 (A) (A) (A) (A) (A) (A) (A) (A) (A) (A) (A) (A)
                 (A) (A) (A) (A) (A) (A)
 The electronic state is 1-A.
 Alpha  occ. eigenvalues --  -14.60408 -14.60328 -14.60061 -14.59900 -10.52158
 Alpha  occ. eigenvalues --  -10.52113 -10.45670 -10.45636 -10.45529 -10.45493
 Alpha  occ. eigenvalues --  -10.43166 -10.43164 -10.42868 -10.42786 -10.41823
 Alpha  occ. eigenvalues --  -10.41661 -10.41482 -10.41399 -10.41078 -10.40980
 Alpha  occ. eigenvalues --   -1.29457  -1.29444  -1.17255  -1.14820  -1.14792
 Alpha  occ. eigenvalues --   -1.12591  -1.07421  -1.05095  -1.02535  -1.00117
 Alpha  occ. eigenvalues --   -0.98141  -0.93542  -0.90644  -0.89582  -0.89050
 Alpha  occ. eigenvalues --   -0.88833  -0.86631  -0.85932  -0.85060  -0.80603
 Alpha  occ. eigenvalues --   -0.77152  -0.75854  -0.74834  -0.74633  -0.74580
 Alpha  occ. eigenvalues --   -0.74440  -0.73173  -0.70254  -0.70114  -0.68876
 Alpha  occ. eigenvalues --   -0.68367  -0.67923  -0.67507  -0.66447  -0.66041
 Alpha  occ. eigenvalues --   -0.65718  -0.64060  -0.63074  -0.63014  -0.62773
 Alpha  occ. eigenvalues --   -0.62602  -0.62338  -0.61285  -0.58381  -0.58371
 Alpha  occ. eigenvalues --   -0.54984  -0.51719  -0.49848  -0.49719  -0.47099
 Alpha virt. eigenvalues --   -0.33303  -0.27613  -0.26910  -0.22118  -0.21736
 Alpha virt. eigenvalues --   -0.21242  -0.19922  -0.18932  -0.18363  -0.17890
 Alpha virt. eigenvalues --   -0.17860  -0.17105  -0.16640  -0.16392  -0.15989
 Alpha virt. eigenvalues --   -0.15795  -0.15641  -0.14410  -0.14225  -0.14144
 Alpha virt. eigenvalues --   -0.13789  -0.13513  -0.12942  -0.12071  -0.11646
 Alpha virt. eigenvalues --   -0.11527  -0.10981  -0.10286  -0.10185  -0.09982
 Alpha virt. eigenvalues --   -0.09542  -0.09363  -0.09358  -0.08831  -0.08510
 Alpha virt. eigenvalues --   -0.08433  -0.08096  -0.07580  -0.06995  -0.06991
 Alpha virt. eigenvalues --   -0.06522  -0.06141  -0.06113  -0.06108  -0.06031
 Alpha virt. eigenvalues --   -0.05909  -0.05148  -0.04917  -0.04164  -0.04094
 Alpha virt. eigenvalues --   -0.03835  -0.03731  -0.03674  -0.03638  -0.03427
 Alpha virt. eigenvalues --   -0.03037  -0.02832  -0.02760  -0.02715  -0.02230
 Alpha virt. eigenvalues --   -0.02172  -0.01092  -0.00881  -0.00376  -0.00349
 Alpha virt. eigenvalues --    0.00093   0.00606   0.00678   0.00792   0.01175
 Alpha virt. eigenvalues --    0.01606   0.01768   0.02173   0.02334   0.02475
 Alpha virt. eigenvalues --    0.02612   0.02735   0.03024   0.03403   0.03840
 Alpha virt. eigenvalues --    0.04072   0.04102   0.04245   0.04711   0.04933
 Alpha virt. eigenvalues --    0.05423   0.05651   0.05757   0.06210   0.06320
 Alpha virt. eigenvalues --    0.06638   0.07162   0.07172   0.07304   0.07666
 Alpha virt. eigenvalues --    0.07737   0.08788   0.08998   0.09197   0.09528
 Alpha virt. eigenvalues --    0.10271   0.10442   0.10627   0.11079   0.11270
 Alpha virt. eigenvalues --    0.12006   0.12097   0.12230   0.12713   0.13045
 Alpha virt. eigenvalues --    0.13503   0.14931   0.15073   0.15456   0.15710
 Alpha virt. eigenvalues --    0.16776   0.16980   0.17534   0.17850   0.18355
 Alpha virt. eigenvalues --    0.18965   0.19966   0.21696   0.22080   0.23864
 Alpha virt. eigenvalues --    0.24522   0.25225   0.25640   0.26140   0.26964
 Alpha virt. eigenvalues --    0.27069   0.27961   0.29039   0.30020   0.30815
 Alpha virt. eigenvalues --    0.30839   0.32978   0.33042   0.33195   0.33899
 Alpha virt. eigenvalues --    0.33975   0.34678   0.35051   0.35610   0.36601
 Alpha virt. eigenvalues --    0.36796   0.37035   0.37253   0.37460   0.37659
 Alpha virt. eigenvalues --    0.37936   0.38330   0.39388   0.39639   0.40123
 Alpha virt. eigenvalues --    0.40600   0.40873   0.41068   0.41458   0.42320
 Alpha virt. eigenvalues --    0.42969   0.43117   0.43700   0.44236   0.45357
 Alpha virt. eigenvalues --    0.45595   0.45607   0.45838   0.46857   0.47360
 Alpha virt. eigenvalues --    0.48135   0.48515   0.48805   0.49054   0.49482
 Alpha virt. eigenvalues --    0.50099   0.50294   0.51911   0.51981   0.53317
 Alpha virt. eigenvalues --    0.53553   0.54148   0.54846   0.54957   0.55288
 Alpha virt. eigenvalues --    0.55883   0.57016   0.59091   0.59340   0.59747
 Alpha virt. eigenvalues --    0.61884   0.62227   0.62670   0.64146   0.65185
 Alpha virt. eigenvalues --    0.66686   0.67747   0.67797   0.68492   0.68611
 Alpha virt. eigenvalues --    0.70047   0.70057   0.70297   0.71549   0.71720
 Alpha virt. eigenvalues --    0.71880   0.72187   0.72886   0.73760   0.75154
 Alpha virt. eigenvalues --    0.76206   0.76935   0.77589   0.78529   0.78605
 Alpha virt. eigenvalues --    0.79036   0.79884   0.79932   0.80345   0.81069
 Alpha virt. eigenvalues --    0.84026   0.84183   0.84403   0.84763   0.85012
 Alpha virt. eigenvalues --    0.87222   0.87330   0.87675   0.90292   0.90974
 Alpha virt. eigenvalues --    0.92555   0.92938   0.93131   0.94679   0.96347
 Alpha virt. eigenvalues --    0.97243   0.98201   0.99514   1.00580   1.01224
 Alpha virt. eigenvalues --    1.01308   1.02708   1.05261   1.08566   1.13211
 Alpha virt. eigenvalues --    1.13622   1.18169   1.19441   1.20868   1.21311
 Alpha virt. eigenvalues --    1.21608   1.23722   1.24359   1.24384   1.24550
 Alpha virt. eigenvalues --    1.25301   1.25516   1.27963   1.28301   1.28735
 Alpha virt. eigenvalues --    1.29186   1.29683   1.31324   1.31536   1.31663
 Alpha virt. eigenvalues --    1.32752   1.32997   1.34057   1.36868   1.37527
 Alpha virt. eigenvalues --    1.38143   1.38562   1.39921   1.40153   1.40789
 Alpha virt. eigenvalues --    1.41612   1.41806   1.42988   1.43603   1.43918
 Alpha virt. eigenvalues --    1.45761   1.47927   1.48592   1.48969   1.50218
 Alpha virt. eigenvalues --    1.50534   1.51187   1.51807   1.51971   1.52643
 Alpha virt. eigenvalues --    1.53495   1.53756   1.54421   1.55624   1.55947
 Alpha virt. eigenvalues --    1.57581   1.58549   1.61831   1.62011   1.62867
 Alpha virt. eigenvalues --    1.65835   1.66633   1.67617   1.68911   1.69193
 Alpha virt. eigenvalues --    1.69741   1.71661   1.71992   1.73247   1.74398
 Alpha virt. eigenvalues --    1.75222   1.75616   1.76003   1.77664   1.78099
 Alpha virt. eigenvalues --    1.80915   1.81920   1.82362   1.83195   1.83827
 Alpha virt. eigenvalues --    1.85282   1.86543   1.87645   1.87804   1.88159
 Alpha virt. eigenvalues --    1.88904   1.89661   1.90212   1.90236   1.91962
 Alpha virt. eigenvalues --    1.94863   1.95329   1.95658   1.97279   2.01086
 Alpha virt. eigenvalues --    2.01344   2.01971   2.02448   2.07266   2.08549
 Alpha virt. eigenvalues --    2.08817   2.09442   2.12203   2.12778   2.14184
 Alpha virt. eigenvalues --    2.14851   2.15846   2.18439   2.20767   2.21202
 Alpha virt. eigenvalues --    2.22224   2.22886   2.23321   2.25317   2.25886
 Alpha virt. eigenvalues --    2.28677   2.30118   2.32657   2.32794   2.34139
 Alpha virt. eigenvalues --    2.35133   2.36669   2.37674   2.37903   2.38009
 Alpha virt. eigenvalues --    2.38222   2.39499   2.39703   2.43593   2.43869
 Alpha virt. eigenvalues --    2.45023   2.45485   2.46279   2.49150   2.49908
 Alpha virt. eigenvalues --    2.51752   2.52221   2.53740   2.54556   2.56318
 Alpha virt. eigenvalues --    2.57114   2.57768   2.57810   2.58151   2.59072
 Alpha virt. eigenvalues --    2.59948   2.60937   2.61214   2.62829   2.63804
 Alpha virt. eigenvalues --    2.64227   2.65035   2.65050   2.65438   2.69608
 Alpha virt. eigenvalues --    2.69801   2.69900   2.70343   2.73030   2.73517
 Alpha virt. eigenvalues --    2.75879   2.76061   2.78099   2.78972   2.79470
 Alpha virt. eigenvalues --    2.81239   2.82037   2.86485   2.86576   2.88530
 Alpha virt. eigenvalues --    2.88809   2.90204   2.91033   2.91334   3.06045
 Alpha virt. eigenvalues --    3.07664   3.11936   3.12372   3.13584   3.15221
 Alpha virt. eigenvalues --    3.23925   3.24041   3.26541   3.27460   3.30015
 Alpha virt. eigenvalues --    3.31108   3.31727   3.31768   3.34470   3.34611
 Alpha virt. eigenvalues --    3.36145   3.37284   3.39670   3.41490   3.46499
 Alpha virt. eigenvalues --    3.48248   3.50208   3.51637   3.57029   3.61379
 Alpha virt. eigenvalues --    3.62751   3.63279   3.63654   3.70436   3.70691
 Alpha virt. eigenvalues --    3.72040   3.72174   3.82825   3.86861   3.94567
 Alpha virt. eigenvalues --    3.97700   3.97816   3.99992   4.00674   4.06649
 Alpha virt. eigenvalues --    4.26893   4.45922   4.48675   4.60525   4.60902
 Alpha virt. eigenvalues --    4.66825   4.71000   4.75412   4.78982   4.99185
 Alpha virt. eigenvalues --    4.99272  23.29521  23.57585  23.57802  23.60205
 Alpha virt. eigenvalues --   23.61741  23.63757  23.79228  23.83179  23.88275
 Alpha virt. eigenvalues --   23.91250  23.98412  24.03018  24.06484  24.07112
 Alpha virt. eigenvalues --   24.13021  24.19167  35.34689  35.35812  35.55535
 Alpha virt. eigenvalues --   35.55958
          Condensed to atoms (all electrons):
               1          2          3          4          5          6
     1  N    6.789239   0.281920  -0.101381  -0.174028   0.350706   0.004592
     2  C    0.281920   5.892276  -0.313470  -0.159565  -0.088055   0.053649
     3  C   -0.101381  -0.313470   5.798069   0.303102  -0.096932   0.027425
     4  N   -0.174028  -0.159565   0.303102   6.822142   0.372652   0.047047
     5  C    0.350706  -0.088055  -0.096932   0.372652   5.902061   1.050126
     6  C    0.004592   0.053649   0.027425   0.047047   1.050126   8.619257
     7  C   -0.127212  -0.059152  -0.019577  -0.022922  -0.171506   0.024586
     8  C   -0.023986  -0.007773   0.013259   0.022276  -0.141939   0.129845
     9  C   -0.045732   0.014222  -0.023334  -0.103739  -0.687829  -2.958322
    10  C    0.028267   0.036801  -0.029932  -0.092050  -0.089672   0.461748
    11  C   -0.105594  -0.130314  -0.019883  -0.046238  -0.219463   0.177936
    12  N    0.000006  -0.000006  -0.000001   0.000011  -0.000574   0.002935
    13  C    0.000001   0.000001   0.000000   0.000000   0.000121   0.000097
    14  C    0.000000  -0.000001   0.000000  -0.000001  -0.000205  -0.001376
    15  N    0.000000   0.000000   0.000000   0.000001  -0.000123  -0.004780
    16  C    0.000106  -0.000223  -0.000041   0.000097  -0.009694  -0.019988
    17  C   -0.002650   0.000774  -0.008257  -0.017402  -0.205507  -0.882764
    18  C   -0.005064  -0.002496   0.000986   0.003746  -0.055427  -0.506339
    19  C    0.002649   0.001061  -0.002460   0.001114   0.050604  -0.031988
    20  C   -0.001538  -0.002950  -0.007223  -0.036371  -0.161523  -1.159811
    21  H    0.317126  -0.063503   0.012076   0.011995   0.010451  -0.016417
    22  H   -0.040587   0.411155  -0.034041   0.009054   0.001674  -0.007314
    23  H   -0.040772   0.411032  -0.033996   0.009201   0.001848  -0.007424
    24  H    0.007418  -0.041668   0.416198  -0.039619  -0.003371  -0.005087
    25  H    0.007586  -0.041571   0.416055  -0.039811  -0.003081  -0.005155
    26  H    0.016995   0.002782  -0.061374   0.320133   0.004008  -0.047144
    27  H    0.013229   0.022361  -0.009436  -0.003773  -0.011116  -0.034475
    28  H   -0.004583  -0.003811   0.002684   0.002305   0.028555   0.022867
    29  H   -0.004163   0.003393   0.030012   0.044016   0.020428  -0.022485
    30  H   -0.000004   0.000017   0.000002  -0.000027   0.001106   0.002612
    31  H    0.000000   0.000000   0.000000   0.000000   0.000000  -0.000075
    32  H    0.000000   0.000000   0.000000   0.000000   0.000000  -0.000075
    33  H    0.000000   0.000000   0.000000   0.000000  -0.000001  -0.000028
    34  H    0.000000   0.000000   0.000000   0.000000  -0.000001  -0.000028
    35  H    0.000006   0.000002  -0.000005  -0.000008   0.000090   0.000847
    36  H    0.000659   0.000262  -0.000337   0.000061  -0.014371  -0.019371
    37  H   -0.000076  -0.000062   0.000175   0.000365  -0.001458  -0.008812
    38  H    0.001005   0.001118  -0.003537  -0.008432   0.010651  -0.010007
               7          8          9         10         11         12
     1  N   -0.127212  -0.023986  -0.045732   0.028267  -0.105594   0.000006
     2  C   -0.059152  -0.007773   0.014222   0.036801  -0.130314  -0.000006
     3  C   -0.019577   0.013259  -0.023334  -0.029932  -0.019883  -0.000001
     4  N   -0.022922   0.022276  -0.103739  -0.092050  -0.046238   0.000011
     5  C   -0.171506  -0.141939  -0.687829  -0.089672  -0.219463  -0.000574
     6  C    0.024586   0.129845  -2.958322   0.461748   0.177936   0.002935
     7  C    6.354312   1.171147  -0.984756   0.234232   0.673126   0.002969
     8  C    1.171147   7.570698  -1.044922   2.168262   1.084418  -0.055571
     9  C   -0.984756  -1.044922   9.569630  -0.571783  -1.006085  -0.099577
    10  C    0.234232   2.168262  -0.571783   9.752828   1.922237  -0.132944
    11  C    0.673126   1.084418  -1.006085   1.922237   6.987388  -0.023812
    12  N    0.002969  -0.055571  -0.099577  -0.132944  -0.023812   6.819604
    13  C   -0.003873  -0.001182  -0.044907  -0.020075  -0.005628   0.302352
    14  C    0.002221  -0.010337   0.043003  -0.009068  -0.000298  -0.199732
    15  N    0.001625  -0.006414   0.032376  -0.045427  -0.004849  -0.180066
    16  C    0.100847  -0.244751  -0.053065  -0.776366  -0.161322   0.375335
    17  C   -0.386161  -1.469399   1.795198  -1.123978  -0.612251  -0.039884
    18  C    0.019407  -1.172474   0.554173  -3.035455  -0.834191   0.050309
    19  C   -0.293340  -0.563304   0.220758  -1.105387  -0.515972  -0.007990
    20  C   -0.575263  -1.386695   1.933530  -1.078087  -1.358976   0.019073
    21  H    0.017991  -0.013832   0.006412  -0.002128  -0.001433  -0.000020
    22  H    0.006317   0.000699   0.000163  -0.000096   0.003306   0.000000
    23  H    0.006351   0.000719   0.000207  -0.000088   0.003388   0.000000
    24  H    0.003968   0.000530   0.000144   0.000090   0.008410   0.000000
    25  H    0.003983   0.000532   0.000159   0.000099   0.008357   0.000000
    26  H    0.017028  -0.001741   0.022735  -0.007890   0.030366  -0.000010
    27  H    0.387433  -0.006411  -0.002151   0.024764  -0.008329   0.000714
    28  H    0.047047   0.413910  -0.160684   0.063662   0.039383  -0.012897
    29  H   -0.003203   0.054898  -0.094931   0.058259   0.378175  -0.000036
    30  H   -0.001979   0.038283  -0.014232   0.060112   0.007944   0.311556
    31  H   -0.000143  -0.000354  -0.000336  -0.000483  -0.000122  -0.038298
    32  H   -0.000144  -0.000350  -0.000319  -0.000456  -0.000117  -0.038476
    33  H   -0.000009   0.000049  -0.000181   0.000478   0.000017   0.012615
    34  H   -0.000011   0.000053  -0.000180   0.000506   0.000021   0.012748
    35  H    0.000683  -0.000403   0.002757   0.004354   0.002378   0.012108
    36  H   -0.025835  -0.167745   0.124760  -0.188623  -0.053896   0.064794
    37  H   -0.001462  -0.004806   0.018888  -0.017088  -0.019067  -0.003855
    38  H   -0.018462  -0.055807   0.044891  -0.137014  -0.049416   0.002230
              13         14         15         16         17         18
     1  N    0.000001   0.000000   0.000000   0.000106  -0.002650  -0.005064
     2  C    0.000001  -0.000001   0.000000  -0.000223   0.000774  -0.002496
     3  C    0.000000   0.000000   0.000000  -0.000041  -0.008257   0.000986
     4  N    0.000000  -0.000001   0.000001   0.000097  -0.017402   0.003746
     5  C    0.000121  -0.000205  -0.000123  -0.009694  -0.205507  -0.055427
     6  C    0.000097  -0.001376  -0.004780  -0.019988  -0.882764  -0.506339
     7  C   -0.003873   0.002221   0.001625   0.100847  -0.386161   0.019407
     8  C   -0.001182  -0.010337  -0.006414  -0.244751  -1.469399  -1.172474
     9  C   -0.044907   0.043003   0.032376  -0.053065   1.795198   0.554173
    10  C   -0.020075  -0.009068  -0.045427  -0.776366  -1.123978  -3.035455
    11  C   -0.005628  -0.000298  -0.004849  -0.161322  -0.612251  -0.834191
    12  N    0.302352  -0.199732  -0.180066   0.375335  -0.039884   0.050309
    13  C    5.778427  -0.356419  -0.110115  -0.141734   0.049864  -0.039888
    14  C   -0.356419   6.001738   0.318606   0.014358  -0.245131   0.144531
    15  N   -0.110115   0.318606   6.819797   0.369585  -0.144646   0.040126
    16  C   -0.141734   0.014358   0.369585   6.149940  -0.506998   1.232165
    17  C    0.049864  -0.245131  -0.144646  -0.506998   7.746035  -0.099199
    18  C   -0.039888   0.144531   0.040126   1.232165  -0.099199   8.982237
    19  C    0.025041  -0.100499  -0.119586  -0.255292   0.806646   0.031574
    20  C    0.024383  -0.024687  -0.020686  -0.283256   1.250321  -0.195880
    21  H   -0.000020   0.000009   0.000009   0.000558   0.007009   0.001913
    22  H    0.000000   0.000000   0.000000  -0.000005  -0.000104  -0.000060
    23  H    0.000000   0.000000   0.000000  -0.000005  -0.000098  -0.000059
    24  H    0.000000   0.000000   0.000000   0.000001  -0.000032  -0.000042
    25  H    0.000000   0.000000   0.000000   0.000001  -0.000028  -0.000043
    26  H   -0.000002   0.000005  -0.000001   0.000228   0.002084  -0.000139
    27  H    0.000329  -0.000091  -0.000084  -0.003172  -0.021543  -0.010264
    28  H   -0.004415   0.000620   0.000784   0.012495  -0.072499  -0.009439
    29  H   -0.000267   0.000261   0.000564  -0.004017  -0.033841   0.010463
    30  H   -0.066995  -0.018269   0.013233  -0.020814   0.071112  -0.090185
    31  H    0.425537  -0.043034   0.006201  -0.007141   0.008360  -0.003222
    32  H    0.425428  -0.042952   0.006337  -0.006911   0.008337  -0.003294
    33  H   -0.025228   0.395130  -0.043718   0.004026   0.007146  -0.009860
    34  H   -0.025198   0.395023  -0.043861   0.004190   0.007212  -0.009962
    35  H    0.015707  -0.048052   0.325757   0.006470  -0.007800  -0.007306
    36  H    0.032173   0.016666  -0.001968   0.034356   0.381555   0.014836
    37  H   -0.008853   0.014046   0.011194   0.006190  -0.016422   0.000286
    38  H    0.002166  -0.002283  -0.003178   0.011641   0.047658  -0.004724
              19         20         21         22         23         24
     1  N    0.002649  -0.001538   0.317126  -0.040587  -0.040772   0.007418
     2  C    0.001061  -0.002950  -0.063503   0.411155   0.411032  -0.041668
     3  C   -0.002460  -0.007223   0.012076  -0.034041  -0.033996   0.416198
     4  N    0.001114  -0.036371   0.011995   0.009054   0.009201  -0.039619
     5  C    0.050604  -0.161523   0.010451   0.001674   0.001848  -0.003371
     6  C   -0.031988  -1.159811  -0.016417  -0.007314  -0.007424  -0.005087
     7  C   -0.293340  -0.575263   0.017991   0.006317   0.006351   0.003968
     8  C   -0.563304  -1.386695  -0.013832   0.000699   0.000719   0.000530
     9  C    0.220758   1.933530   0.006412   0.000163   0.000207   0.000144
    10  C   -1.105387  -1.078087  -0.002128  -0.000096  -0.000088   0.000090
    11  C   -0.515972  -1.358976  -0.001433   0.003306   0.003388   0.008410
    12  N   -0.007990   0.019073  -0.000020   0.000000   0.000000   0.000000
    13  C    0.025041   0.024383  -0.000020   0.000000   0.000000   0.000000
    14  C   -0.100499  -0.024687   0.000009   0.000000   0.000000   0.000000
    15  N   -0.119586  -0.020686   0.000009   0.000000   0.000000   0.000000
    16  C   -0.255292  -0.283256   0.000558  -0.000005  -0.000005   0.000001
    17  C    0.806646   1.250321   0.007009  -0.000104  -0.000098  -0.000032
    18  C    0.031574  -0.195880   0.001913  -0.000060  -0.000059  -0.000042
    19  C    6.384965   1.366190   0.000856  -0.000022  -0.000024  -0.000097
    20  C    1.366190   7.792587   0.001110  -0.000073  -0.000068  -0.000117
    21  H    0.000856   0.001110   0.352628   0.000828   0.000739  -0.000299
    22  H   -0.000022  -0.000073   0.000828   0.423047  -0.007813  -0.006036
    23  H   -0.000024  -0.000068   0.000739  -0.007813   0.423248   0.009250
    24  H   -0.000097  -0.000117  -0.000299  -0.006036   0.009250   0.427630
    25  H   -0.000099  -0.000115  -0.000281   0.009250  -0.006069  -0.012043
    26  H   -0.002178   0.014780   0.001698   0.000302   0.000321   0.004337
    27  H   -0.002602  -0.005741   0.002943  -0.000561  -0.000539   0.000111
    28  H   -0.020470  -0.063198   0.003924  -0.000005  -0.000008   0.000009
    29  H   -0.010732  -0.115810   0.001251  -0.000312  -0.000318  -0.001276
    30  H    0.018082  -0.005679   0.000002   0.000000   0.000000   0.000000
    31  H    0.002654   0.000633   0.000000   0.000000   0.000000   0.000000
    32  H    0.002671   0.000634   0.000000   0.000000   0.000000   0.000000
    33  H    0.005928   0.000811   0.000000   0.000000   0.000000   0.000000
    34  H    0.005952   0.000831   0.000000   0.000000   0.000000   0.000000
    35  H    0.001866  -0.007038   0.000001   0.000000   0.000000   0.000000
    36  H    0.015116   0.085625  -0.000817  -0.000001   0.000000  -0.000002
    37  H    0.398406  -0.035820   0.000044  -0.000001  -0.000001   0.000001
    38  H    0.039213   0.425286   0.000068   0.000012   0.000012  -0.000006
              25         26         27         28         29         30
     1  N    0.007586   0.016995   0.013229  -0.004583  -0.004163  -0.000004
     2  C   -0.041571   0.002782   0.022361  -0.003811   0.003393   0.000017
     3  C    0.416055  -0.061374  -0.009436   0.002684   0.030012   0.000002
     4  N   -0.039811   0.320133  -0.003773   0.002305   0.044016  -0.000027
     5  C   -0.003081   0.004008  -0.011116   0.028555   0.020428   0.001106
     6  C   -0.005155  -0.047144  -0.034475   0.022867  -0.022485   0.002612
     7  C    0.003983   0.017028   0.387433   0.047047  -0.003203  -0.001979
     8  C    0.000532  -0.001741  -0.006411   0.413910   0.054898   0.038283
     9  C    0.000159   0.022735  -0.002151  -0.160684  -0.094931  -0.014232
    10  C    0.000099  -0.007890   0.024764   0.063662   0.058259   0.060112
    11  C    0.008357   0.030366  -0.008329   0.039383   0.378175   0.007944
    12  N    0.000000  -0.000010   0.000714  -0.012897  -0.000036   0.311556
    13  C    0.000000  -0.000002   0.000329  -0.004415  -0.000267  -0.066995
    14  C    0.000000   0.000005  -0.000091   0.000620   0.000261  -0.018269
    15  N    0.000000  -0.000001  -0.000084   0.000784   0.000564   0.013233
    16  C    0.000001   0.000228  -0.003172   0.012495  -0.004017  -0.020814
    17  C   -0.000028   0.002084  -0.021543  -0.072499  -0.033841   0.071112
    18  C   -0.000043  -0.000139  -0.010264  -0.009439   0.010463  -0.090185
    19  C   -0.000099  -0.002178  -0.002602  -0.020470  -0.010732   0.018082
    20  C   -0.000115   0.014780  -0.005741  -0.063198  -0.115810  -0.005679
    21  H   -0.000281   0.001698   0.002943   0.003924   0.001251   0.000002
    22  H    0.009250   0.000302  -0.000561  -0.000005  -0.000312   0.000000
    23  H   -0.006069   0.000321  -0.000539  -0.000008  -0.000318   0.000000
    24  H   -0.012043   0.004337   0.000111   0.000009  -0.001276   0.000000
    25  H    0.427801   0.004260   0.000109   0.000007  -0.001267   0.000000
    26  H    0.004260   0.354313  -0.001019   0.000050  -0.018494   0.000024
    27  H    0.000109  -0.001019   0.596990  -0.033133  -0.004285  -0.000848
    28  H    0.000007   0.000050  -0.033133   0.533672   0.004251   0.008268
    29  H   -0.001267  -0.018494  -0.004285   0.004251   0.705604  -0.000532
    30  H    0.000000   0.000024  -0.000848   0.008268  -0.000532   0.384993
    31  H    0.000000   0.000000   0.000002  -0.000036  -0.000004   0.003702
    32  H    0.000000   0.000000   0.000002  -0.000036  -0.000003   0.003621
    33  H    0.000000   0.000000  -0.000001   0.000020   0.000002   0.001101
    34  H    0.000000   0.000000  -0.000001   0.000020   0.000002   0.001113
    35  H    0.000000  -0.000002   0.000026   0.000003  -0.000208   0.000822
    36  H   -0.000002  -0.000356   0.012692  -0.047261   0.002893  -0.051130
    37  H    0.000001  -0.000278  -0.000416   0.000615   0.006940  -0.000366
    38  H   -0.000006   0.002991   0.000399  -0.002542  -0.025362  -0.000163
              31         32         33         34         35         36
     1  N    0.000000   0.000000   0.000000   0.000000   0.000006   0.000659
     2  C    0.000000   0.000000   0.000000   0.000000   0.000002   0.000262
     3  C    0.000000   0.000000   0.000000   0.000000  -0.000005  -0.000337
     4  N    0.000000   0.000000   0.000000   0.000000  -0.000008   0.000061
     5  C    0.000000   0.000000  -0.000001  -0.000001   0.000090  -0.014371
     6  C   -0.000075  -0.000075  -0.000028  -0.000028   0.000847  -0.019371
     7  C   -0.000143  -0.000144  -0.000009  -0.000011   0.000683  -0.025835
     8  C   -0.000354  -0.000350   0.000049   0.000053  -0.000403  -0.167745
     9  C   -0.000336  -0.000319  -0.000181  -0.000180   0.002757   0.124760
    10  C   -0.000483  -0.000456   0.000478   0.000506   0.004354  -0.188623
    11  C   -0.000122  -0.000117   0.000017   0.000021   0.002378  -0.053896
    12  N   -0.038298  -0.038476   0.012615   0.012748   0.012108   0.064794
    13  C    0.425537   0.425428  -0.025228  -0.025198   0.015707   0.032173
    14  C   -0.043034  -0.042952   0.395130   0.395023  -0.048052   0.016666
    15  N    0.006201   0.006337  -0.043718  -0.043861   0.325757  -0.001968
    16  C   -0.007141  -0.006911   0.004026   0.004190   0.006470   0.034356
    17  C    0.008360   0.008337   0.007146   0.007212  -0.007800   0.381555
    18  C   -0.003222  -0.003294  -0.009860  -0.009962  -0.007306   0.014836
    19  C    0.002654   0.002671   0.005928   0.005952   0.001866   0.015116
    20  C    0.000633   0.000634   0.000811   0.000831  -0.007038   0.085625
    21  H    0.000000   0.000000   0.000000   0.000000   0.000001  -0.000817
    22  H    0.000000   0.000000   0.000000   0.000000   0.000000  -0.000001
    23  H    0.000000   0.000000   0.000000   0.000000   0.000000   0.000000
    24  H    0.000000   0.000000   0.000000   0.000000   0.000000  -0.000002
    25  H    0.000000   0.000000   0.000000   0.000000   0.000000  -0.000002
    26  H    0.000000   0.000000   0.000000   0.000000  -0.000002  -0.000356
    27  H    0.000002   0.000002  -0.000001  -0.000001   0.000026   0.012692
    28  H   -0.000036  -0.000036   0.000020   0.000020   0.000003  -0.047261
    29  H   -0.000004  -0.000003   0.000002   0.000002  -0.000208   0.002893
    30  H    0.003702   0.003621   0.001101   0.001113   0.000822  -0.051130
    31  H    0.426548  -0.012251  -0.006110   0.009043  -0.000503  -0.001481
    32  H   -0.012251   0.426712   0.009041  -0.006139  -0.000488  -0.001462
    33  H   -0.006110   0.009041   0.424474  -0.007791   0.000939  -0.000666
    34  H    0.009043  -0.006139  -0.007791   0.424627   0.000878  -0.000665
    35  H   -0.000503  -0.000488   0.000939   0.000878   0.339938   0.001976
    36  H   -0.001481  -0.001462  -0.000666  -0.000665   0.001976   0.825754
    37  H    0.000114   0.000111  -0.000337  -0.000330   0.003741  -0.005590
    38  H    0.000018   0.000017  -0.000010  -0.000011   0.001796   0.005149
              37         38
     1  N   -0.000076   0.001005
     2  C   -0.000062   0.001118
     3  C    0.000175  -0.003537
     4  N    0.000365  -0.008432
     5  C   -0.001458   0.010651
     6  C   -0.008812  -0.010007
     7  C   -0.001462  -0.018462
     8  C   -0.004806  -0.055807
     9  C    0.018888   0.044891
    10  C   -0.017088  -0.137014
    11  C   -0.019067  -0.049416
    12  N   -0.003855   0.002230
    13  C   -0.008853   0.002166
    14  C    0.014046  -0.002283
    15  N    0.011194  -0.003178
    16  C    0.006190   0.011641
    17  C   -0.016422   0.047658
    18  C    0.000286  -0.004724
    19  C    0.398406   0.039213
    20  C   -0.035820   0.425286
    21  H    0.000044   0.000068
    22  H   -0.000001   0.000012
    23  H   -0.000001   0.000012
    24  H    0.000001  -0.000006
    25  H    0.000001  -0.000006
    26  H   -0.000278   0.002991
    27  H   -0.000416   0.000399
    28  H    0.000615  -0.002542
    29  H    0.006940  -0.025362
    30  H   -0.000366  -0.000163
    31  H    0.000114   0.000018
    32  H    0.000111   0.000017
    33  H   -0.000337  -0.000010
    34  H   -0.000330  -0.000011
    35  H    0.003741   0.001796
    36  H   -0.005590   0.005149
    37  H    0.567856  -0.023881
    38  H   -0.023881   0.515298
 Mulliken charges:
               1
     1  N   -0.144138
     2  C   -0.218207
     3  C   -0.254825
     4  N   -0.225332
     5  C    0.156767
     6  C    1.123697
     7  C   -0.380260
     8  C   -0.289381
     9  C   -0.486941
    10  C   -0.352607
    11  C   -0.149597
    12  N   -0.155612
    13  C   -0.226828
    14  C   -0.243783
    15  N   -0.216695
    16  C    0.172206
    17  C   -0.292718
    18  C    1.008261
    19  C   -0.349301
    20  C   -0.389191
    21  H    0.347107
    22  H    0.231225
    23  H    0.230967
    24  H    0.231599
    25  H    0.231373
    26  H    0.341190
    27  H    0.097886
    28  H    0.249867
    29  H    0.020135
    30  H    0.343518
    31  H    0.230780
    32  H    0.230562
    33  H    0.232164
    34  H    0.231959
    35  H    0.348668
    36  H   -0.037747
    37  H    0.120009
    38  H    0.233223
 Sum of Mulliken charges =   2.00000
 Mulliken charges with hydrogens summed into heavy atoms:
               1
     1  N    0.202968
     2  C    0.243986
     3  C    0.208147
     4  N    0.115858
     5  C    0.156767
     6  C    1.123697
     7  C   -0.282374
     8  C   -0.039514
     9  C   -0.486941
    10  C   -0.352607
    11  C   -0.129462
    12  N    0.187906
    13  C    0.234514
    14  C    0.220340
    15  N    0.131973
    16  C    0.172206
    17  C   -0.330465
    18  C    1.008261
    19  C   -0.229291
    20  C   -0.155969
 Electronic spatial extent (au):  <R**2>=           8589.4591
 Charge=              2.0000 electrons
 Dipole moment (field-independent basis, Debye):
    X=              0.0090    Y=             -0.3304    Z=              0.0012  Tot=              0.3305
 Quadrupole moment (field-independent basis, Debye-Ang):
   XX=            114.6156   YY=            -77.6315   ZZ=           -114.3194
   XY=              1.5134   XZ=              0.0013   YZ=              0.0002
 Traceless Quadrupole moment (field-independent basis, Debye-Ang):
   XX=            140.3940   YY=            -51.8531   ZZ=            -88.5410
   XY=              1.5134   XZ=              0.0013   YZ=              0.0002
 Octapole moment (field-independent basis, Debye-Ang**2):
  XXX=              1.4832  YYY=              1.1253  ZZZ=              0.0082  XYY=             -0.0261
  XXY=             -7.0827  XXZ=              0.0703  XZZ=              0.1129  YZZ=             -1.2289
  YYZ=              0.0030  XYZ=             -0.0472
 Hexadecapole moment (field-independent basis, Debye-Ang**3):
 XXXX=          -2443.6997 YYYY=           -721.8920 ZZZZ=           -142.9276 XXXY=             71.1861
 XXXZ=              0.0315 YYYX=             -8.1436 YYYZ=              0.0045 ZZZX=              0.0021
 ZZZY=             -0.0035 XXYY=          -1326.0050 XXZZ=          -1622.2614 YYZZ=           -184.2501
 XXYZ=              0.0011 YYXZ=             -0.0015 ZZXY=             11.6927
 N-N= 1.459024254259D+03 E-N=-4.833331695631D+03  KE= 8.378045898358D+02

 **********************************************************************

            Electrostatic Properties Using The SCF Density

 **********************************************************************

       Atomic Center    1 is at   4.625645 -0.998321  0.000509
       Atomic Center    2 is at   6.060373 -0.642968  0.001489
       Atomic Center    3 is at   5.992918  0.890208 -0.000810
       Atomic Center    4 is at   4.493348  1.077611 -0.000319
       Atomic Center    5 is at   3.801207 -0.030948  0.000025
       Atomic Center    6 is at   2.459248 -0.192485 -0.000157
       Atomic Center    7 is at   1.908147 -1.423220 -0.000088
       Atomic Center    8 is at   0.578980 -1.608678 -0.000268
       Atomic Center    9 is at  -0.266653 -0.564696 -0.000342
       Atomic Center   10 is at   0.256394  0.673349 -0.000326
       Atomic Center   11 is at   1.593497  0.842627 -0.000397
       Atomic Center   12 is at  -4.351653 -1.059182 -0.000322
       Atomic Center   13 is at  -5.829549 -1.090833 -0.000785
       Atomic Center   14 is at  -6.166086  0.406272  0.001303
       Atomic Center   15 is at  -4.767830  0.979388  0.000520
       Atomic Center   16 is at  -3.809294  0.090487  0.000051
       Atomic Center   17 is at  -1.602076 -0.738888 -0.000343
       Atomic Center   18 is at  -2.472808  0.292138 -0.000080
       Atomic Center   19 is at  -1.925533  1.523764  0.000062
[...]
 N-N= 1.415045150144D+03 E-N=-4.744179389350D+03  KE= 8.356184669213D+02

 **********************************************************************

            Electrostatic Properties Using The SCF Density

 **********************************************************************

       Atomic Center    1 is at   4.877745 -1.027964  0.000738
       Atomic Center    2 is at   6.271362 -0.535161  0.001474
       Atomic Center    3 is at   6.074380  1.004046 -0.001590
       Atomic Center    4 is at   4.600959  1.130568 -0.000726
       Atomic Center    5 is at   3.985763 -0.045845  0.000009
       Atomic Center    6 is at   2.526871 -0.244748  0.000014
       Atomic Center    7 is at   1.987031 -1.562679  0.000031
       Atomic Center    8 is at   0.632348 -1.763138  0.000010
       Atomic Center    9 is at  -0.265629 -0.662943  0.000004
       Atomic Center   10 is at   0.265611  0.663417  0.000036
       Atomic Center   11 is at   1.668770  0.841539  0.000012
       Atomic Center   12 is at  -4.600589 -1.130846 -0.000713
       Atomic Center   13 is at  -6.074149 -1.004765 -0.001451
       Atomic Center   14 is at  -6.271432  0.534402  0.001333
       Atomic Center   15 is at  -4.878058  1.027593  0.000697
       Atomic Center   16 is at  -3.985780  0.045944  0.000005
       Atomic Center   17 is at  -1.668802 -0.841011 -0.000027
       Atomic Center   18 is at  -2.526934  0.245233  0.000026
       Atomic Center   19 is at  -1.987106  1.563186  0.000108
       Atomic Center   20 is at  -0.632414  1.763601  0.000099
       Atomic Center   21 is at   4.643766 -2.007949  0.001865
       Atomic Center   22 is at   6.793143 -0.889872  0.890598
       Atomic Center   23 is at   6.795392 -0.893128 -0.884988
       Atomic Center   24 is at   6.490542  1.477841 -0.890909
       Atomic Center   25 is at   6.492054  1.481577  0.884986
       Atomic Center   26 is at   4.128913  2.020372 -0.001966
       Atomic Center   27 is at   2.633315 -2.431228 -0.000034
       Atomic Center   28 is at   0.238797 -2.772963 -0.000018
       Atomic Center   29 is at   2.040498  1.859439  0.000083
       Atomic Center   30 is at  -4.128320 -2.020445 -0.001825
       Atomic Center   31 is at  -6.490258 -1.478797 -0.890661
       Atomic Center   32 is at  -6.491569 -1.482186  0.885302
       Atomic Center   33 is at  -6.793447  0.889173  0.890295
       Atomic Center   34 is at  -6.795446  0.892134 -0.885237
       Atomic Center   35 is at  -4.644356  2.007717  0.001777
       Atomic Center   36 is at  -2.040693 -1.858860 -0.000013
       Atomic Center   37 is at  -2.633237  2.431821  0.000097
       Atomic Center   38 is at  -0.238835  2.773423  0.000126
 -----------------------------------------------------------------

              Electrostatic Properties (Atomic Units)

 -----------------------------------------------------------------
    Center     Electric         -------- Electric Field --------
               Potential          X             Y             Z
 -----------------------------------------------------------------
    1 Atom    -18.103265      0.006578     -0.004590     -0.000025
    2 Atom    -14.495279      0.010443      0.003521      0.000007
    3 Atom    -14.495119      0.010959     -0.000828     -0.000008
    4 Atom    -18.103853      0.005369      0.005975      0.000030
    5 Atom    -14.412766     -0.011185     -0.001478      0.000000
    6 Atom    -14.499021     -0.003998     -0.001417      0.000000
    7 Atom    -14.526099     -0.000506     -0.001455      0.000000
    8 Atom    -14.532940     -0.001317     -0.001835      0.000000
    9 Atom    -14.516781      0.000818     -0.000485      0.000000
   10 Atom    -14.516781     -0.000821      0.000486      0.000000
   11 Atom    -14.516344     -0.001346      0.001070     -0.000001
   12 Atom    -18.103883     -0.005372     -0.005948      0.000025
   13 Atom    -14.495119     -0.010946      0.000825     -0.000007
   14 Atom    -14.495280     -0.010455     -0.003527      0.000006
   15 Atom    -18.103238     -0.006582      0.004616     -0.000023
   16 Atom    -14.412764      0.011189      0.001440      0.000000
   17 Atom    -14.516349      0.001347     -0.001071     -0.000001
   18 Atom    -14.499021      0.003998      0.001419      0.000000
   19 Atom    -14.526098      0.000507      0.001454      0.000000
   20 Atom    -14.532940      0.001319      0.001834      0.000000
   21 Atom     -0.755481     -0.005080     -0.022889      0.000032
   22 Atom     -0.882086      0.009306     -0.006373      0.015533
   23 Atom     -0.882051      0.009347     -0.006431     -0.015487
   24 Atom     -0.882261      0.007408      0.008507     -0.015521
   25 Atom     -0.882226      0.007436      0.008573      0.015474
   26 Atom     -0.755263     -0.010680      0.020802     -0.000035
   27 Atom     -0.862736      0.011130     -0.015497     -0.000003
   28 Atom     -0.873559     -0.006894     -0.018109      0.000000
   29 Atom     -0.852918      0.006432      0.017966      0.000004
   30 Atom     -0.755303      0.010722     -0.020856     -0.000032
   31 Atom     -0.882264     -0.007409     -0.008516     -0.015516
   32 Atom     -0.882233     -0.007433     -0.008576      0.015474
   33 Atom     -0.882078     -0.009312      0.006370      0.015533
   34 Atom     -0.882048     -0.009348      0.006422     -0.015492
   35 Atom     -0.755444      0.005054      0.022833      0.000030
   36 Atom     -0.852921     -0.006410     -0.017963      0.000002
   37 Atom     -0.862741     -0.011159      0.015504     -0.000002
   38 Atom     -0.873562      0.006889      0.018105      0.000001
 -----------------------------------------------------------------
 -----------------------------------------------------
    Center         ---- Electric Field Gradient ----
                     XX            YY            ZZ
 -----------------------------------------------------
    1 Atom     -812.405979   -812.301054   -811.094551
    2 Atom     -500.681525   -500.422534   -500.106337
    3 Atom     -500.778547   -500.322778   -500.104799
    4 Atom     -812.348517   -812.307172   -811.023281
    5 Atom     -500.803829   -501.002728   -501.480653
    6 Atom     -500.716263   -500.465295   -500.848832
    7 Atom     -500.691629   -500.804620   -501.202799
    8 Atom     -500.790505   -500.833597   -501.335254
    9 Atom     -500.738508   -500.726652   -501.224676
   10 Atom     -500.738516   -500.726688   -501.224706
   11 Atom     -500.805224   -500.817744   -501.313474
   12 Atom     -812.348553   -812.307277   -811.022775
   13 Atom     -500.778780   -500.322841   -500.104866
   14 Atom     -500.681279   -500.422535   -500.106293
   15 Atom     -812.405851   -812.301055   -811.095034
   16 Atom     -500.803800   -501.002740   -501.480640
   17 Atom     -500.805307   -500.817844   -501.313580
   18 Atom     -500.716241   -500.465300   -500.848821
   19 Atom     -500.691531   -500.804515   -501.202682
   20 Atom     -500.790525   -500.833635   -501.335267
   21 Atom       -1.620833     -2.125534     -1.515809
   22 Atom       -1.791201     -1.736766     -1.980269
   23 Atom       -1.792031     -1.737594     -1.978507
   24 Atom       -1.759669     -1.770161     -1.981458
   25 Atom       -1.760084     -1.771453     -1.979640
   26 Atom       -1.719746     -2.034616     -1.517767
   27 Atom       -1.870497     -1.980629     -1.661486
   28 Atom       -1.740368     -2.069459     -1.653532
   29 Atom       -1.756493     -2.092076     -1.662640
   30 Atom       -1.720099     -2.034839     -1.517872
   31 Atom       -1.759654     -1.770245     -1.981394
   32 Atom       -1.760013     -1.771418     -1.979765
   33 Atom       -1.791288     -1.736785     -1.980163
   34 Atom       -1.792026     -1.737539     -1.978578
   35 Atom       -1.620607     -2.125230     -1.515714
   36 Atom       -1.756564     -2.092037     -1.662655
   37 Atom       -1.870437     -1.980731     -1.661489
   38 Atom       -1.740369     -2.069428     -1.653526
 -----------------------------------------------------
 -----------------------------------------------------
    Center         ---- Electric Field Gradient ----
                     XY            XZ            YZ
 -----------------------------------------------------
    1 Atom        0.049136     -0.000603      0.001052
    2 Atom       -0.234552     -0.000348      0.000296
    3 Atom        0.141822      0.000325      0.000362
    4 Atom       -0.067330      0.000378      0.001303
    5 Atom        0.025724      0.000063     -0.000596
    6 Atom       -0.049143     -0.000008      0.000002
    7 Atom       -0.012735      0.000007      0.000033
    8 Atom        0.031193      0.000010      0.000011
    9 Atom       -0.014647      0.000011      0.000004
   10 Atom       -0.014638     -0.000012      0.000020
   11 Atom       -0.015607     -0.000026      0.000046
   12 Atom       -0.067543     -0.000340     -0.001197
   13 Atom        0.141707     -0.000269     -0.000332
   14 Atom       -0.234610      0.000302     -0.000275
   15 Atom        0.048940      0.000536     -0.001018
   16 Atom        0.025633     -0.000057      0.000552
   17 Atom       -0.015642      0.000023     -0.000017
   18 Atom       -0.049218      0.000004      0.000018
   19 Atom       -0.012793     -0.000007     -0.000009
   20 Atom        0.031202     -0.000008      0.000016
   21 Atom       -0.131188      0.000121      0.000698
   22 Atom        0.059800     -0.170610      0.118587
   23 Atom        0.060745      0.170895     -0.119338
   24 Atom       -0.065488      0.135423      0.157629
   25 Atom       -0.066346     -0.135548     -0.158421
   26 Atom        0.238394     -0.000323      0.000713
   27 Atom        0.222265      0.000000     -0.000019
   28 Atom       -0.155018     -0.000005     -0.000011
   29 Atom       -0.152460      0.000005     -0.000021
   30 Atom        0.238615      0.000290     -0.000641
   31 Atom       -0.065525     -0.135396     -0.157694
   32 Atom       -0.066291      0.135492      0.158416
   33 Atom        0.059838      0.170660     -0.118587
   34 Atom        0.060691     -0.170908      0.119272
   35 Atom       -0.130963     -0.000118     -0.000668
   36 Atom       -0.152504     -0.000012     -0.000002
   37 Atom        0.222277      0.000012      0.000000
   38 Atom       -0.155016     -0.000003     -0.000011
 -----------------------------------------------------
 -----------------------------------------------------
    Center         ---- Electric Field Gradient ----
                   ----       Eigenvalues       ----
 -----------------------------------------------------
    1 Atom     -812.425396   -812.281637   -811.094550
    2 Atom     -500.819955   -500.284106   -500.106336
    3 Atom     -500.819074   -500.282252   -500.104798
    4 Atom     -812.398278   -812.257413   -811.023280
    5 Atom     -501.480654   -501.006000   -500.800556
    6 Atom     -500.848832   -500.725543   -500.456015
    7 Atom     -501.202799   -500.806038   -500.690211
    8 Atom     -501.335254   -500.849962   -500.774141
    9 Atom     -501.224676   -500.748380   -500.716779
   10 Atom     -501.224706   -500.748389   -500.716815
   11 Atom     -501.313474   -500.828299   -500.794669
   12 Atom     -812.398542   -812.257290   -811.022774
   13 Atom     -500.819233   -500.282388   -500.104865
   14 Atom     -500.819823   -500.283992   -500.106292
   15 Atom     -812.425152   -812.281755   -811.095033
   16 Atom     -501.480641   -501.005989   -500.800551
   17 Atom     -501.313580   -500.828427   -500.794724
   18 Atom     -500.848821   -500.725549   -500.455993
   19 Atom     -501.202682   -500.805946   -500.690101
   20 Atom     -501.335267   -500.850003   -500.774157
   21 Atom       -2.157598     -1.588770     -1.515808
   22 Atom       -2.125937     -1.699374     -1.682926
   23 Atom       -2.125943     -1.699314     -1.682873
   24 Atom       -2.127074     -1.700317     -1.683896
   25 Atom       -2.127080     -1.700254     -1.683842
   26 Atom       -2.162869     -1.591494     -1.517766
   27 Atom       -2.154548     -1.696578     -1.661486
   28 Atom       -2.130979     -1.678848     -1.653532
   29 Atom       -2.150996     -1.697573     -1.662640
   30 Atom       -2.163307     -1.591632     -1.517871
   31 Atom       -2.127085     -1.700311     -1.683898
   32 Atom       -2.127091     -1.700256     -1.683850
   33 Atom       -2.125937     -1.699377     -1.682922
   34 Atom       -2.125943     -1.699325     -1.682876
   35 Atom       -2.157194     -1.588644     -1.515713
   36 Atom       -2.151001     -1.697600     -1.662655
   37 Atom       -2.154600     -1.696568     -1.661489
   38 Atom       -2.130951     -1.678846     -1.653526
 -----------------------------------------------------
 -----------------------------------------------------
    Center         ---- Electric Field Gradient ----
                       ( tensor representation )
                   3XX-RR        3YY-RR        3ZZ-RR
 -----------------------------------------------------
    1 Atom       -0.472118     -0.367192      0.839310
    2 Atom       -0.278060     -0.019069      0.297128
    3 Atom       -0.376505      0.079263      0.297242
    4 Atom       -0.455527     -0.414182      0.869709
    5 Atom        0.291908      0.093009     -0.384917
    6 Atom       -0.039467      0.211502     -0.172035
    7 Atom        0.208054      0.095063     -0.303117
    8 Atom        0.195947      0.152855     -0.348802
    9 Atom        0.158104      0.169960     -0.328064
   10 Atom        0.158121      0.169949     -0.328070
   11 Atom        0.173590      0.161070     -0.334660
   12 Atom       -0.455685     -0.414409      0.870093
   13 Atom       -0.376618      0.079322      0.297296
   14 Atom       -0.277910     -0.019165      0.297076
   15 Atom       -0.471871     -0.367075      0.838946
   16 Atom        0.291927      0.092987     -0.384913
   17 Atom        0.173603      0.161066     -0.334670
   18 Atom       -0.039453      0.211487     -0.172034
   19 Atom        0.208045      0.095061     -0.303106
   20 Atom        0.195951      0.152841     -0.348791
   21 Atom        0.133226     -0.371476      0.238250
   22 Atom        0.044878      0.099313     -0.144191
   23 Atom        0.044013      0.098450     -0.142463
   24 Atom        0.077427      0.066935     -0.144362
   25 Atom        0.076975      0.065606     -0.142581
   26 Atom        0.037630     -0.277239      0.239610
   27 Atom       -0.032960     -0.143092      0.176052
   28 Atom        0.080751     -0.248339      0.167588
   29 Atom        0.080577     -0.255006      0.174430
   30 Atom        0.037505     -0.277236      0.239731
   31 Atom        0.077444      0.066853     -0.144296
   32 Atom        0.077052      0.065647     -0.142700
   33 Atom        0.044790      0.099294     -0.144084
   34 Atom        0.044021      0.098509     -0.142530
   35 Atom        0.133243     -0.371379      0.238136
   36 Atom        0.080521     -0.254951      0.174430
   37 Atom       -0.032885     -0.143179      0.176064
   38 Atom        0.080738     -0.248320      0.167582
 -----------------------------------------------------
 -----------------------------------------------------
    Center         ---- Electric Field Gradient ----
                       ( tensor representation )
                   ----       Eigenvalues       ----
 -----------------------------------------------------
    1 Atom       -0.491535     -0.347776      0.839311
    2 Atom       -0.416489      0.119360      0.297130
    3 Atom       -0.417033      0.119790      0.297243
    4 Atom       -0.505288     -0.364423      0.869711
    5 Atom       -0.384917      0.089736      0.295181
    6 Atom       -0.172035     -0.048746      0.220781
    7 Atom       -0.303117      0.093645      0.209471
    8 Atom       -0.348802      0.136490      0.212312
    9 Atom       -0.328064      0.148231      0.179833
   10 Atom       -0.328070      0.148248      0.179822
   11 Atom       -0.334660      0.150515      0.184145
   12 Atom       -0.505673     -0.364421      0.870095
   13 Atom       -0.417071      0.119774      0.297297
   14 Atom       -0.416454      0.119377      0.297077
   15 Atom       -0.491172     -0.347775      0.838947
   16 Atom       -0.384914      0.089738      0.295176
   17 Atom       -0.334670      0.150483      0.184186
   18 Atom       -0.172034     -0.048761      0.220795
   19 Atom       -0.303106      0.093631      0.209476
   20 Atom       -0.348791      0.136473      0.212319
   21 Atom       -0.403539      0.165289      0.238250
   22 Atom       -0.289858      0.136705      0.153153
   23 Atom       -0.289900      0.136729      0.153170
   24 Atom       -0.289978      0.136778      0.153200
   25 Atom       -0.290021      0.136804      0.153217
   26 Atom       -0.405493      0.165882      0.239611
   27 Atom       -0.317011      0.140959      0.176052
   28 Atom       -0.309860      0.142272      0.167588
   29 Atom       -0.313926      0.139496      0.174430
   30 Atom       -0.405703      0.165971      0.239732
   31 Atom       -0.289987      0.136787      0.153200
   32 Atom       -0.290025      0.136810      0.153215
   33 Atom       -0.289858      0.136701      0.153157
   34 Atom       -0.289895      0.136723      0.153172
   35 Atom       -0.403344      0.165207      0.238137
   36 Atom       -0.313915      0.139485      0.174430
   37 Atom       -0.317048      0.140984      0.176064
   38 Atom       -0.309844      0.142262      0.167582
 -----------------------------------------------------

 Test job not archived.
 1|1|UNPC-NP-ALMACH|FOpt|RB3LYP|6-311++G(d,p)|C16H18N4(2+)|HERA|24-Aug-
 2018|0||# RB3LYP/6-311++G** Opt Test prop=EFG||C16N4H18||2,1|N,-4.5897
 434982,-1.0070506351,-1.6972481846|C,-5.5900660128,-0.9199619026,-2.78
 20503698|C,-4.8229852041,-0.1248895889,-3.8717356754|N,-3.5125839766,0
 .1055639122,-3.226199155|C,-3.4441491345,-0.4134707385,-2.0062252647|C
 ,-2.2732357748,-0.346731161,-1.1160370316|C,-2.3246551803,-0.944531431
 6,0.1756136044|C,-1.2435289866,-0.8904231906,1.0144159109|C,-0.0465649
 823,-0.2377124357,0.6168775082|C,0.0155131637,0.3652420123,-0.67696905
 03|C,-1.1158104614,0.2944742625,-1.5229491464|N,3.4804039324,0.0228155
 99,3.1670600846|C,4.7902065924,0.2544380602,3.8136224636|C,5.559521917
 3,1.0445064829,2.7218764771|N,4.5590909509,1.1329937156,1.6374233503|C
 ,3.4129424753,0.5408347296,1.946432476|C,1.0847732999,-0.1668686692,1.
 4628432453|C,2.242227505,0.4742709986,1.0559594564|C,2.2936994233,1.07
 19988544,-0.2357399624|C,1.2125382957,1.0178935667,-1.0745005309|H,-4.
 7708735591,-1.4715980763,-0.8217452198|H,-5.8718714662,-1.9200438338,-
 3.112260739|H,-6.479874283,-0.3978600509,-2.4296108701|H,-5.2974674637
 ,0.828049644,-4.1069661867|H,-4.6923912075,-0.6945869311,-4.7920047081
 |H,-2.7624671385,0.6055478112,-3.6755541503|H,-3.2160342712,-1.4526175
 761,0.5210866483|H,-1.3001278645,-1.3507231748,1.99398097|H,-1.0373763
 17,0.7612640012,-2.497760604|H,2.7293747712,-0.4750736202,3.6170468905
 |H,4.6587396407,0.8279687793,4.7314064181|H,5.263478784,-0.6979691177,
 4.0532767651|H,6.4472123748,0.5184297641,2.3699322748|H,5.8452853046,2
 .0441608067,3.0498981208|H,4.7412644295,1.5957472295,0.7611059128|H,1.
 0065278938,-0.6336865583,2.4376653828|H,3.1849546457,1.5801763652,-0.5
 813275603|H,1.2691123817,1.4781890971,-2.0540785506||Version=EM64W-G09
 RevD.01|State=1-A|HF=-839.2796683|RMSD=4.124e-009|RMSF=9.229e-005|Dipo
 le=0.0000763,0.0002693,-0.0001579|Quadrupole=66.1609585,-60.9646209,-5
 .1963376,23.1065011,69.9387562,-1.5918664|PG=C01 [X(C16H18N4)]||@


 ... THE UNIVERSE IS NOT ONLY QUEERER THAN WE SUPPOSE,
 BUT QUEERER THAN WE CAN SUPPOSE ... 

                                   -- J. B. S. HALDANE
 Job cpu time:       0 days  0 hours 21 minutes 47.0 seconds.
 File lengths (MBytes):  RWF=    190 Int=      0 D2E=      0 Chk=     26 Scr=      1
 Normal termination of Gaussian 09 at Fri Aug 24 17:21:22 2018.
