 Entering Link 1 = C:\G09W\l1.exe PID=      5596.
  
 Copyright (c) 1988,1990,1992,1993,1995,1998,2003,2009,2013,
            Gaussian, Inc.  All Rights Reserved.
  
 This is part of the Gaussian(R) 09 program.  It is based on
 the Gaussian(R) 03 system (copyright 2003, Gaussian, Inc.),
 the Gaussian(R) 98 system (copyright 1998, Gaussian, Inc.),
 the Gaussian(R) 94 system (copyright 1995, Gaussian, Inc.),
 the Gaussian 92(TM) system (copyright 1992, Gaussian, Inc.),
 the Gaussian 90(TM) system (copyright 1990, Gaussian, Inc.),
 the Gaussian 88(TM) system (copyright 1988, Gaussian, Inc.),
 the Gaussian 86(TM) system (copyright 1986, Carnegie Mellon
 University), and the Gaussian 82(TM) system (copyright 1983,
 Carnegie Mellon University). Gaussian is a federally registered
 trademark of Gaussian, Inc.
  
 This software contains proprietary and confidential information,
 including trade secrets, belonging to Gaussian, Inc.
  
 This software is provided under written license and may be
 used, copied, transmitted, or stored only in accord with that
 written license.
  
 The following legend is applicable only to US Government
 contracts under FAR:
  
                    RESTRICTED RIGHTS LEGEND
  
 Use, reproduction and disclosure by the US Government is
 subject to restrictions as set forth in subparagraphs (a)
 and (c) of the Commercial Computer Software - Restricted
 Rights clause in FAR 52.227-19.
  
 Gaussian, Inc.
 340 Quinnipiac St., Bldg. 40, Wallingford CT 06492
  
  
 ---------------------------------------------------------------
 Warning -- This program may not be used in any manner that
 competes with the business of Gaussian, Inc. or will provide
 assistance to any competitor of Gaussian, Inc.  The licensee
 of this program is prohibited from giving any competitor of
 Gaussian, Inc. access to this program.  By using this program,
 the user acknowledges that Gaussian, Inc. is engaged in the
 business of creating and licensing software in the field of
 computational chemistry and represents and warrants to the
 licensee that it is not a competitor of Gaussian, Inc. and that
 it will not use this program in any manner prohibited above.
 ---------------------------------------------------------------
  

 Cite this work as:
 Gaussian 09, Revision D.01,
 M. J. Frisch, G. W. Trucks, H. B. Schlegel, G. E. Scuseria, 
 M. A. Robb, J. R. Cheeseman, G. Scalmani, V. Barone, B. Mennucci, 
 G. A. Petersson, H. Nakatsuji, M. Caricato, X. Li, H. P. Hratchian, 
 A. F. Izmaylov, J. Bloino, G. Zheng, J. L. Sonnenberg, M. Hada, 
 M. Ehara, K. Toyota, R. Fukuda, J. Hasegawa, M. Ishida, T. Nakajima, 
 Y. Honda, O. Kitao, H. Nakai, T. Vreven, J. A. Montgomery, Jr., 
 J. E. Peralta, F. Ogliaro, M. Bearpark, J. J. Heyd, E. Brothers, 
 K. N. Kudin, V. N. Staroverov, T. Keith, R. Kobayashi, J. Normand, 
 K. Raghavachari, A. Rendell, J. C. Burant, S. S. Iyengar, J. Tomasi, 
 M. Cossi, N. Rega, J. M. Millam, M. Klene, J. E. Knox, J. B. Cross, 
 V. Bakken, C. Adamo, J. Jaramillo, R. Gomperts, R. E. Stratmann, 
 O. Yazyev, A. J. Austin, R. Cammi, C. Pomelli, J. W. Ochterski, 
 R. L. Martin, K. Morokuma, V. G. Zakrzewski, G. A. Voth, 
 P. Salvador, J. J. Dannenberg, S. Dapprich, A. D. Daniels, 
 O. Farkas, J. B. Foresman, J. V. Ortiz, J. Cioslowski, 
 and D. J. Fox, Gaussian, Inc., Wallingford CT, 2013.
 
 ******************************************
 Gaussian 09:  EM64W-G09RevD.01 13-Apr-2013
                27-Aug-2018 
 ******************************************
 %Chk=Anth_386.chk
 %Mem=64GB
 %NProcShared=20
 Will use up to   20 processors via shared memory.
 -------------------------------------
 # RB3LYP/6-311++G** Opt Test prop=EFG
 -------------------------------------
 1/14=-1,18=20,19=15,26=3,38=1/1,3;
 2/9=110,12=2,17=6,18=5,40=1/2;
 3/5=4,6=6,7=1111,11=2,16=1,25=1,30=1,71=1,74=-5,116=1/1,2,3;
 4//1;
 5/5=2,38=5/2;
 6/7=2,8=2,9=2,10=2,14=1,28=1/1,2;
 7//1,2,3,16;
 1/14=-1,18=20,19=15,26=3/3(2);
 2/9=110/2;
 99//99;
 2/9=110/2;
 3/5=4,6=6,7=1111,11=2,16=1,25=1,30=1,71=1,74=-5,116=1/1,2,3;
 4/5=5,16=3,69=1/1;
 5/5=2,38=5/2;
 7//1,2,3,16;
 1/14=-1,18=20,19=15,26=3/3(-5);
 2/9=110/2;
 6/7=2,8=2,9=2,10=2,14=1,19=2,28=1/1,2;
 99/9=1/99;
 --------
 C16N6H18
 --------
 Symbolic Z-matrix:
 Charge =  2 Multiplicity = 1
 N                     5.38851  -1.48964  -0.60945 
 C                     6.57138  -2.37291  -0.53461 
 C                     5.96075  -3.65006   0.06161 
 N                     4.52311  -3.20492   0.20272 
 C                     4.29316  -1.98315  -0.19682 
 C                     3.12811  -1.30357  -0.19963 
 C                     1.95793  -1.80806   0.23339 
 N                     0.84874  -1.19663   0.24428 
 C                     0.73823  -0.00002  -0.1713 
 C                     1.8553    0.60049  -0.62871 
 C                     3.03637  -0.03754  -0.64487 
 N                    -4.58587   3.29981  -0.24708 
 C                    -6.01057   3.65413  -0.07299 
 C                    -6.5773    2.35835   0.52548 
 N                    -5.31873   1.52219   0.56237 
 C                    -4.2523    2.12775   0.11182 
 C                    -0.48531   0.59054  -0.12791 
 N                    -1.46827  -0.07582   0.32611 
 C                    -2.63471   0.41097   0.39631 
 C                    -2.99449   1.65046   0.01818 
 C                    -1.97321   2.37871  -0.46724 
 C                    -0.73981   1.85086  -0.53646 
 H                     5.45911  -0.51421  -0.98192 
 H                     6.98934  -2.53516  -1.55409 
 H                     7.34259  -1.91889   0.12835 
 H                     6.3906   -3.90421   1.05752 
 H                     6.03369  -4.52095  -0.62938 
 H                     3.8092   -3.83734   0.58577 
 H                     1.8875   -2.83598   0.62558 
 H                     1.86425   1.63272  -1.00932 
 H                     3.90512   0.51778  -1.03271 
 H                    -3.89649   3.97998  -0.64415 
 H                    -6.10406   4.52095   0.62002 
 H                    -6.46316   3.90199  -1.05997 
 H                    -7.34259   1.88383  -0.13051 
 H                    -6.97989   2.50348   1.55409 
 H                    -5.33708   0.55889   0.92011 
 H                    -3.36934  -0.29756   0.81323 
 H                    -2.10508   3.4144   -0.81921 
 H                     0.03869   2.51221  -0.94521 
 

 GradGradGradGradGradGradGradGradGradGradGradGradGradGradGradGradGradGrad
 Berny optimization.
 Initialization pass.
                           ----------------------------
                           !    Initial Parameters    !
                           ! (Angstroms and Degrees)  !
 --------------------------                            --------------------------
 ! Name  Definition              Value          Derivative Info.                !
 --------------------------------------------------------------------------------
 ! R1    R(1,2)                  1.4782         estimate D2E/DX2                !
 ! R2    R(1,5)                  1.2703         estimate D2E/DX2                !
 ! R3    R(1,23)                 1.0465         estimate D2E/DX2                !
 ! R4    R(2,3)                  1.5361         estimate D2E/DX2                !
 ! R5    R(2,24)                 1.1137         estimate D2E/DX2                !
 ! R6    R(2,25)                 1.1137         estimate D2E/DX2                !
 ! R7    R(3,4)                  1.5116         estimate D2E/DX2                !
 ! R8    R(3,26)                 1.1141         estimate D2E/DX2                !
 ! R9    R(3,27)                 1.1141         estimate D2E/DX2                !
 ! R10   R(4,5)                  1.3058         estimate D2E/DX2                !
 ! R11   R(4,28)                 1.0278         estimate D2E/DX2                !
 ! R12   R(5,6)                  1.3488         estimate D2E/DX2                !
 ! R13   R(6,7)                  1.3459         estimate D2E/DX2                !
 ! R14   R(6,11)                 1.3452         estimate D2E/DX2                !
 ! R15   R(7,8)                  1.2666         estimate D2E/DX2                !
 ! R16   R(7,29)                 1.1024         estimate D2E/DX2                !
 ! R17   R(8,9)                  1.2715         estimate D2E/DX2                !
 ! R18   R(9,10)                 1.3482         estimate D2E/DX2                !
 ! R19   R(9,17)                 1.3593         estimate D2E/DX2                !
 ! R20   R(10,11)                1.3425         estimate D2E/DX2                !
 ! R21   R(10,30)                1.1002         estimate D2E/DX2                !
 ! R22   R(11,31)                1.1016         estimate D2E/DX2                !
 ! R23   R(12,13)                1.4784         estimate D2E/DX2                !
 ! R24   R(12,16)                1.2704         estimate D2E/DX2                !
 ! R25   R(12,32)                1.0467         estimate D2E/DX2                !
 ! R26   R(13,14)                1.5357         estimate D2E/DX2                !
 ! R27   R(13,33)                1.1137         estimate D2E/DX2                !
 ! R28   R(13,34)                1.1137         estimate D2E/DX2                !
 ! R29   R(14,15)                1.5115         estimate D2E/DX2                !
 ! R30   R(14,35)                1.1141         estimate D2E/DX2                !
 ! R31   R(14,36)                1.1141         estimate D2E/DX2                !
 ! R32   R(15,16)                1.3065         estimate D2E/DX2                !
 ! R33   R(15,37)                1.0277         estimate D2E/DX2                !
 ! R34   R(16,20)                1.3486         estimate D2E/DX2                !
 ! R35   R(17,18)                1.2714         estimate D2E/DX2                !
 ! R36   R(17,22)                1.3491         estimate D2E/DX2                !
 ! R37   R(18,19)                1.2659         estimate D2E/DX2                !
 ! R38   R(19,20)                1.3449         estimate D2E/DX2                !
 ! R39   R(19,38)                1.1025         estimate D2E/DX2                !
 ! R40   R(20,21)                1.345          estimate D2E/DX2                !
 ! R41   R(21,22)                1.3434         estimate D2E/DX2                !
 ! R42   R(21,39)                1.1018         estimate D2E/DX2                !
 ! R43   R(22,40)                1.1002         estimate D2E/DX2                !
 ! A1    A(2,1,5)              116.1957         estimate D2E/DX2                !
 ! A2    A(2,1,23)             121.399          estimate D2E/DX2                !
 ! A3    A(5,1,23)             122.4052         estimate D2E/DX2                !
 ! A4    A(1,2,3)              101.4413         estimate D2E/DX2                !
 ! A5    A(1,2,24)             109.9389         estimate D2E/DX2                !
 ! A6    A(1,2,25)             109.9179         estimate D2E/DX2                !
 ! A7    A(3,2,24)             112.5421         estimate D2E/DX2                !
 ! A8    A(3,2,25)             112.5302         estimate D2E/DX2                !
 ! A9    A(24,2,25)            110.146          estimate D2E/DX2                !
 ! A10   A(2,3,4)               99.757          estimate D2E/DX2                !
 ! A11   A(2,3,26)             112.5362         estimate D2E/DX2                !
 ! A12   A(2,3,27)             112.5308         estimate D2E/DX2                !
 ! A13   A(4,3,26)             110.5287         estimate D2E/DX2                !
 ! A14   A(4,3,27)             110.5102         estimate D2E/DX2                !
 ! A15   A(26,3,27)            110.5387         estimate D2E/DX2                !
 ! A16   A(3,4,5)              114.4846         estimate D2E/DX2                !
 ! A17   A(3,4,28)             120.9455         estimate D2E/DX2                !
 ! A18   A(5,4,28)             124.5699         estimate D2E/DX2                !
 ! A19   A(1,5,4)              108.1213         estimate D2E/DX2                !
 ! A20   A(1,5,6)              123.258          estimate D2E/DX2                !
 ! A21   A(4,5,6)              128.6207         estimate D2E/DX2                !
 ! A22   A(5,6,7)              124.159          estimate D2E/DX2                !
 ! A23   A(5,6,11)             122.2631         estimate D2E/DX2                !
 ! A24   A(7,6,11)             113.5778         estimate D2E/DX2                !
 ! A25   A(6,7,8)              125.6777         estimate D2E/DX2                !
 ! A26   A(6,7,29)             121.2997         estimate D2E/DX2                !
 ! A27   A(8,7,29)             113.0226         estimate D2E/DX2                !
 ! A28   A(7,8,9)              121.8425         estimate D2E/DX2                !
 ! A29   A(8,9,10)             117.261          estimate D2E/DX2                !
 ! A30   A(8,9,17)             118.4669         estimate D2E/DX2                !
 ! A31   A(10,9,17)            124.2721         estimate D2E/DX2                !
 ! A32   A(9,10,11)            121.4215         estimate D2E/DX2                !
 ! A33   A(9,10,30)            122.8203         estimate D2E/DX2                !
 ! A34   A(11,10,30)           115.7581         estimate D2E/DX2                !
 ! A35   A(6,11,10)            120.2195         estimate D2E/DX2                !
 ! A36   A(6,11,31)            122.4924         estimate D2E/DX2                !
 ! A37   A(10,11,31)           117.2882         estimate D2E/DX2                !
 ! A38   A(13,12,16)           116.1614         estimate D2E/DX2                !
 ! A39   A(13,12,32)           121.5771         estimate D2E/DX2                !
 ! A40   A(16,12,32)           122.2615         estimate D2E/DX2                !
 ! A41   A(12,13,14)           101.4959         estimate D2E/DX2                !
 ! A42   A(12,13,33)           109.9201         estimate D2E/DX2                !
 ! A43   A(12,13,34)           109.9136         estimate D2E/DX2                !
 ! A44   A(14,13,33)           112.5343         estimate D2E/DX2                !
 ! A45   A(14,13,34)           112.5295         estimate D2E/DX2                !
 ! A46   A(33,13,34)           110.1274         estimate D2E/DX2                !
 ! A47   A(13,14,15)            99.73           estimate D2E/DX2                !
 ! A48   A(13,14,35)           112.5462         estimate D2E/DX2                !
 ! A49   A(13,14,36)           112.5348         estimate D2E/DX2                !
 ! A50   A(15,14,35)           110.5327         estimate D2E/DX2                !
 ! A51   A(15,14,36)           110.5137         estimate D2E/DX2                !
 ! A52   A(35,14,36)           110.5419         estimate D2E/DX2                !
 ! A53   A(14,15,16)           114.5092         estimate D2E/DX2                !
 ! A54   A(14,15,37)           120.8068         estimate D2E/DX2                !
 ! A55   A(16,15,37)           124.684          estimate D2E/DX2                !
 ! A56   A(12,16,15)           108.1034         estimate D2E/DX2                !
 ! A57   A(12,16,20)           123.4925         estimate D2E/DX2                !
 ! A58   A(15,16,20)           128.404          estimate D2E/DX2                !
 ! A59   A(9,17,18)            118.6608         estimate D2E/DX2                !
 ! A60   A(9,17,22)            124.472          estimate D2E/DX2                !
 ! A61   A(18,17,22)           116.8673         estimate D2E/DX2                !
 ! A62   A(17,18,19)           122.0504         estimate D2E/DX2                !
 ! A63   A(18,19,20)           125.8249         estimate D2E/DX2                !
 ! A64   A(18,19,38)           112.8193         estimate D2E/DX2                !
 ! A65   A(20,19,38)           121.3558         estimate D2E/DX2                !
 ! A66   A(16,20,19)           123.7914         estimate D2E/DX2                !
 ! A67   A(16,20,21)           122.7954         estimate D2E/DX2                !
 ! A68   A(19,20,21)           113.4132         estimate D2E/DX2                !
 ! A69   A(20,21,22)           120.1985         estimate D2E/DX2                !
 ! A70   A(20,21,39)           122.2349         estimate D2E/DX2                !
 ! A71   A(22,21,39)           117.5666         estimate D2E/DX2                !
 ! A72   A(17,22,21)           121.6456         estimate D2E/DX2                !
 ! A73   A(17,22,40)           122.7218         estimate D2E/DX2                !
 ! A74   A(21,22,40)           115.6326         estimate D2E/DX2                !
 ! D1    D(5,1,2,3)              0.072          estimate D2E/DX2                !
 ! D2    D(5,1,2,24)           119.3792         estimate D2E/DX2                !
 ! D3    D(5,1,2,25)          -119.2125         estimate D2E/DX2                !
 ! D4    D(23,1,2,3)          -179.9811         estimate D2E/DX2                !
 ! D5    D(23,1,2,24)          -60.6738         estimate D2E/DX2                !
 ! D6    D(23,1,2,25)           60.7344         estimate D2E/DX2                !
 ! D7    D(2,1,5,4)             -0.0378         estimate D2E/DX2                !
 ! D8    D(2,1,5,6)            179.9559         estimate D2E/DX2                !
 ! D9    D(23,1,5,4)          -179.9842         estimate D2E/DX2                !
 ! D10   D(23,1,5,6)             0.0096         estimate D2E/DX2                !
 ! D11   D(1,2,3,4)             -0.0676         estimate D2E/DX2                !
 ! D12   D(1,2,3,26)          -117.2353         estimate D2E/DX2                !
 ! D13   D(1,2,3,27)           117.0764         estimate D2E/DX2                !
 ! D14   D(24,2,3,4)          -117.5011         estimate D2E/DX2                !
 ! D15   D(24,2,3,26)          125.3312         estimate D2E/DX2                !
 ! D16   D(24,2,3,27)           -0.3571         estimate D2E/DX2                !
 ! D17   D(25,2,3,4)           117.336          estimate D2E/DX2                !
 ! D18   D(25,2,3,26)            0.1683         estimate D2E/DX2                !
 ! D19   D(25,2,3,27)         -125.52           estimate D2E/DX2                !
 ! D20   D(2,3,4,5)              0.0576         estimate D2E/DX2                !
 ! D21   D(2,3,4,28)          -179.9514         estimate D2E/DX2                !
 ! D22   D(26,3,4,5)           118.7203         estimate D2E/DX2                !
 ! D23   D(26,3,4,28)          -61.2886         estimate D2E/DX2                !
 ! D24   D(27,3,4,5)          -118.5916         estimate D2E/DX2                !
 ! D25   D(27,3,4,28)           61.3994         estimate D2E/DX2                !
 ! D26   D(3,4,5,1)             -0.0165         estimate D2E/DX2                !
 ! D27   D(3,4,5,6)            179.9902         estimate D2E/DX2                !
 ! D28   D(28,4,5,1)           179.9928         estimate D2E/DX2                !
 ! D29   D(28,4,5,6)            -0.0005         estimate D2E/DX2                !
 ! D30   D(1,5,6,7)           -179.9744         estimate D2E/DX2                !
 ! D31   D(1,5,6,11)             0.0175         estimate D2E/DX2                !
 ! D32   D(4,5,6,7)              0.0181         estimate D2E/DX2                !
 ! D33   D(4,5,6,11)          -179.9901         estimate D2E/DX2                !
 ! D34   D(5,6,7,8)            179.974          estimate D2E/DX2                !
 ! D35   D(5,6,7,29)            -0.0078         estimate D2E/DX2                !
 ! D36   D(11,6,7,8)            -0.0185         estimate D2E/DX2                !
 ! D37   D(11,6,7,29)          179.9997         estimate D2E/DX2                !
 ! D38   D(5,6,11,10)         -179.9851         estimate D2E/DX2                !
 ! D39   D(5,6,11,31)            0.0083         estimate D2E/DX2                !
 ! D40   D(7,6,11,10)            0.0075         estimate D2E/DX2                !
 ! D41   D(7,6,11,31)         -179.999          estimate D2E/DX2                !
 ! D42   D(6,7,8,9)              0.0102         estimate D2E/DX2                !
 ! D43   D(29,7,8,9)           179.9933         estimate D2E/DX2                !
 ! D44   D(7,8,9,10)             0.0094         estimate D2E/DX2                !
 ! D45   D(7,8,9,17)          -179.9738         estimate D2E/DX2                !
 ! D46   D(8,9,10,11)           -0.0193         estimate D2E/DX2                !
 ! D47   D(8,9,10,30)         -179.9992         estimate D2E/DX2                !
 ! D48   D(17,9,10,11)         179.9628         estimate D2E/DX2                !
 ! D49   D(17,9,10,30)          -0.0171         estimate D2E/DX2                !
 ! D50   D(8,9,17,18)            0.0267         estimate D2E/DX2                !
 ! D51   D(8,9,17,22)         -179.9905         estimate D2E/DX2                !
 ! D52   D(10,9,17,18)        -179.9552         estimate D2E/DX2                !
 ! D53   D(10,9,17,22)           0.0276         estimate D2E/DX2                !
 ! D54   D(9,10,11,6)            0.0105         estimate D2E/DX2                !
 ! D55   D(9,10,11,31)        -179.9833         estimate D2E/DX2                !
 ! D56   D(30,10,11,6)         179.9917         estimate D2E/DX2                !
 ! D57   D(30,10,11,31)         -0.0021         estimate D2E/DX2                !
 ! D58   D(16,12,13,14)          0.0693         estimate D2E/DX2                !
 ! D59   D(16,12,13,33)        119.3884         estimate D2E/DX2                !
 ! D60   D(16,12,13,34)       -119.2414         estimate D2E/DX2                !
 ! D61   D(32,12,13,14)       -179.9487         estimate D2E/DX2                !
 ! D62   D(32,12,13,33)        -60.6296         estimate D2E/DX2                !
 ! D63   D(32,12,13,34)         60.7406         estimate D2E/DX2                !
 ! D64   D(13,12,16,15)         -0.0291         estimate D2E/DX2                !
 ! D65   D(13,12,16,20)        179.9859         estimate D2E/DX2                !
 ! D66   D(32,12,16,15)        179.9891         estimate D2E/DX2                !
 ! D67   D(32,12,16,20)          0.004          estimate D2E/DX2                !
 ! D68   D(12,13,14,15)         -0.0712         estimate D2E/DX2                !
 ! D69   D(12,13,14,35)       -117.2326         estimate D2E/DX2                !
 ! D70   D(12,13,14,36)        117.0636         estimate D2E/DX2                !
 ! D71   D(33,13,14,15)       -117.5106         estimate D2E/DX2                !
 ! D72   D(33,13,14,35)        125.3281         estimate D2E/DX2                !
 ! D73   D(33,13,14,36)         -0.3758         estimate D2E/DX2                !
 ! D74   D(34,13,14,15)        117.3583         estimate D2E/DX2                !
 ! D75   D(34,13,14,35)          0.1969         estimate D2E/DX2                !
 ! D76   D(34,13,14,36)       -125.5069         estimate D2E/DX2                !
 ! D77   D(13,14,15,16)          0.0669         estimate D2E/DX2                !
 ! D78   D(13,14,15,37)       -179.9695         estimate D2E/DX2                !
 ! D79   D(35,14,15,16)        118.7285         estimate D2E/DX2                !
 ! D80   D(35,14,15,37)        -61.3078         estimate D2E/DX2                !
 ! D81   D(36,14,15,16)       -118.5743         estimate D2E/DX2                !
 ! D82   D(36,14,15,37)         61.3894         estimate D2E/DX2                !
 ! D83   D(14,15,16,12)         -0.028          estimate D2E/DX2                !
 ! D84   D(14,15,16,20)        179.9561         estimate D2E/DX2                !
 ! D85   D(37,15,16,12)       -179.99           estimate D2E/DX2                !
 ! D86   D(37,15,16,20)         -0.0059         estimate D2E/DX2                !
 ! D87   D(12,16,20,19)        179.9964         estimate D2E/DX2                !
 ! D88   D(12,16,20,21)          0.0077         estimate D2E/DX2                !
 ! D89   D(15,16,20,19)          0.0145         estimate D2E/DX2                !
 ! D90   D(15,16,20,21)       -179.9742         estimate D2E/DX2                !
 ! D91   D(9,17,18,19)         179.9587         estimate D2E/DX2                !
 ! D92   D(22,17,18,19)         -0.0253         estimate D2E/DX2                !
 ! D93   D(9,17,22,21)        -179.9671         estimate D2E/DX2                !
 ! D94   D(9,17,22,40)           0.0243         estimate D2E/DX2                !
 ! D95   D(18,17,22,21)          0.016          estimate D2E/DX2                !
 ! D96   D(18,17,22,40)       -179.9927         estimate D2E/DX2                !
 ! D97   D(17,18,19,20)          0.0123         estimate D2E/DX2                !
 ! D98   D(17,18,19,38)       -179.9797         estimate D2E/DX2                !
 ! D99   D(18,19,20,16)       -179.9785         estimate D2E/DX2                !
 ! D100  D(18,19,20,21)          0.0111         estimate D2E/DX2                !
 ! D101  D(38,19,20,16)          0.0129         estimate D2E/DX2                !
 ! D102  D(38,19,20,21)       -179.9976         estimate D2E/DX2                !
 ! D103  D(16,20,21,22)        179.9702         estimate D2E/DX2                !
 ! D104  D(16,20,21,39)         -0.0093         estimate D2E/DX2                !
 ! D105  D(19,20,21,22)         -0.0195         estimate D2E/DX2                !
 ! D106  D(19,20,21,39)       -179.999          estimate D2E/DX2                !
 ! D107  D(20,21,22,17)          0.0071         estimate D2E/DX2                !
 ! D108  D(20,21,22,40)       -179.9849         estimate D2E/DX2                !
 ! D109  D(39,21,22,17)        179.9875         estimate D2E/DX2                !
 ! D110  D(39,21,22,40)         -0.0045         estimate D2E/DX2                !
 --------------------------------------------------------------------------------
 Trust Radius=3.00D-01 FncErr=1.00D-07 GrdErr=1.00D-06
 Number of steps in this run=    237 maximum allowed number of steps=    240.
 GradGradGradGradGradGradGradGradGradGradGradGradGradGradGradGradGradGrad

                          Input orientation:                          
 ---------------------------------------------------------------------
 Center     Atomic      Atomic             Coordinates (Angstroms)
 Number     Number       Type             X           Y           Z
 ---------------------------------------------------------------------
      1          7           0        5.388509   -1.489639   -0.609449
      2          6           0        6.571382   -2.372906   -0.534607
      3          6           0        5.960751   -3.650058    0.061605
      4          7           0        4.523114   -3.204915    0.202723
      5          6           0        4.293156   -1.983150   -0.196819
      6          6           0        3.128105   -1.303568   -0.199630
      7          6           0        1.957930   -1.808063    0.233393
      8          7           0        0.848736   -1.196632    0.244284
      9          6           0        0.738231   -0.000017   -0.171298
     10          6           0        1.855299    0.600490   -0.628709
     11          6           0        3.036366   -0.037538   -0.644867
     12          7           0       -4.585873    3.299809   -0.247084
     13          6           0       -6.010568    3.654131   -0.072993
     14          6           0       -6.577297    2.358346    0.525475
     15          7           0       -5.318725    1.522189    0.562371
     16          6           0       -4.252302    2.127754    0.111822
     17          6           0       -0.485310    0.590539   -0.127907
     18          7           0       -1.468270   -0.075822    0.326108
     19          6           0       -2.634708    0.410969    0.396313
     20          6           0       -2.994490    1.650459    0.018180
     21          6           0       -1.973211    2.378711   -0.467235
     22          6           0       -0.739814    1.850860   -0.536455
     23          1           0        5.459110   -0.514208   -0.981917
     24          1           0        6.989337   -2.535157   -1.554089
     25          1           0        7.342592   -1.918889    0.128348
     26          1           0        6.390595   -3.904207    1.057516
     27          1           0        6.033695   -4.520945   -0.629376
     28          1           0        3.809198   -3.837335    0.585771
     29          1           0        1.887498   -2.835982    0.625581
     30          1           0        1.864254    1.632717   -1.009318
     31          1           0        3.905121    0.517776   -1.032714
     32          1           0       -3.896487    3.979984   -0.644150
     33          1           0       -6.104063    4.520945    0.620022
     34          1           0       -6.463162    3.901986   -1.059966
     35          1           0       -7.342592    1.883825   -0.130511
     36          1           0       -6.979892    2.503475    1.554089
     37          1           0       -5.337081    0.558892    0.920113
     38          1           0       -3.369342   -0.297561    0.813230
     39          1           0       -2.105077    3.414395   -0.819214
     40          1           0        0.038685    2.512206   -0.945212
 ---------------------------------------------------------------------
                    Distance matrix (angstroms):
                    1          2          3          4          5
     1  N    0.000000
     2  C    1.478158   0.000000
     3  C    2.333492   1.536052   0.000000
     4  N    2.085834   2.330514   1.511578   0.000000
     5  C    1.270281   2.335878   2.371969   1.305842   0.000000
     6  C    2.304778   3.621029   3.687566   2.392291   1.348771
     7  C    3.546921   4.710925   4.409652   2.921011   2.380970
     8  N    4.628634   5.893977   5.673215   4.187599   3.560507
     9  C    4.902656   6.307793   6.375873   4.973590   4.070744
    10  C    4.105190   5.575964   5.949658   4.721189   3.578389
    11  C    2.764494   4.238212   4.701216   3.600154   2.359168
    12  N   11.070610  12.519852  12.634367  11.202116  10.331957
    13  C   12.517392  13.958643  14.024328  12.573026  11.745680
    14  C   12.620442  14.014146  13.911101  12.420675  11.727619
    15  N   11.184325  12.559848  12.418916  10.924132  10.259241
    16  C   10.322354  11.739930  11.734227  10.269058   9.487868
    17  C    6.249862   7.664484   7.718179   6.292781   5.427924
    18  N    7.063254   8.405559   8.248362   6.760409   6.091419
    19  C    8.306376   9.662746   9.512407   8.021628   7.353836
    20  C    8.973784  10.392254  10.406426   8.951150   8.146111
    21  C    8.317408   9.777140   9.978651   8.592320   7.639785
    22  C    6.980015   8.443565   8.689957   7.335234   6.336069
    23  H    1.046510   2.211785   3.342774   3.085347   2.033130
    24  H    2.132628   1.113712   2.216182   3.101164   3.068597
    25  H    2.132379   1.113735   2.216052   3.099815   3.067397
    26  H    3.100498   2.216399   1.114090   2.169600   3.108547
    27  H    3.099271   2.216339   1.114100   2.169373   3.107569
    28  H    3.071555   3.321063   2.222387   1.027792   2.069943
    29  H    3.949053   4.847602   4.191918   2.694697   2.681577
    30  H    4.725397   6.198985   6.770220   5.651660   4.431051
    31  H    2.531661   3.963975   4.774305   3.970724   2.665318
    32  H   10.776323  12.245305  12.485222  11.100885  10.140480
    33  H   13.027583  14.474987  14.582073  13.145339  12.291161
    34  H   13.028227  14.475828  14.582349  13.145367  12.291388
    35  H   13.179172  14.556158  14.409709  12.915158  12.261669
    36  H   13.175857  14.552621  14.406725  12.912438  12.258756
    37  H   11.026075  12.350026  12.086906  10.578485  10.022524
    38  H    8.952375  10.244106   9.942576   8.433047   7.910454
    39  H    8.958090  10.433350  10.758249   9.422979   8.393941
    40  H    6.689403   8.167561   8.605698   7.356176   6.234488
                    6          7          8          9         10
     6  C    0.000000
     7  C    1.345858   0.000000
     8  N    2.324654   1.266601   0.000000
     9  C    2.722415   2.218213   1.271537   0.000000
    10  C    2.330146   2.560250   2.237171   1.348212   0.000000
    11  C    1.345171   2.251471   2.630554   2.346721   1.342483
    12  N    8.983250   8.315201   7.070672   6.264238   6.994330
    13  C   10.397604   9.665733   8.407177   7.675204   8.456087
    14  C   10.398568   9.502335   8.237894   7.717792   8.690850
    15  N    8.939490   8.009277   6.747647   6.288251   7.330404
    16  C    8.145022   7.353395   6.090129   5.432586   6.339062
    17  C    4.080386   3.442855   2.261014   1.359298   2.393607
    18  N    4.786483   3.840326   2.575156   2.263141   3.523519
    19  C    6.041920   5.103231   3.839515   3.444969   4.609420
    20  C    6.801462   6.044349   4.788260   4.085729   5.004134
    21  C    6.297159   5.785657   4.610067   3.619094   4.224409
    22  C    5.002466   4.610662   3.524238   2.396602   2.882108
    23  H    2.582372   3.925468   4.819214   4.817488   3.788768
    24  H    4.273229   5.388767   6.537031   6.885882   6.086621
    25  H    4.271778   5.386827   6.534926   6.883999   6.085293
    26  H    4.357474   4.972074   6.221295   6.978675   6.610942
    27  H    4.356449   4.971515   6.220783   6.977862   6.609697
    28  H    2.738744   2.769352   3.981741   4.972826   4.998697
    29  H    2.137375   1.102447   1.977848   3.162045   3.658363
    30  H    3.297679   3.659518   3.256994   2.153143   1.100198
    31  H    2.148273   3.286960   3.729800   3.322550   2.090893
    32  H    8.801046   8.279237   7.078404   6.127365   6.671151
    33  H   10.946676  10.256781   9.009622   8.239070   8.959952
    34  H   10.946706  10.256326   9.008930   8.238654   8.960059
    35  H   10.945307  10.013100   8.759426   8.297604   9.300341
    36  H   10.942610  10.010907   8.757499   8.295412   9.297664
    37  H    8.739677   7.700081   6.465519   6.197820   7.357371
    38  H    6.652425   5.567554   4.350197   4.234381   5.493865
    39  H    7.073136   6.700006   5.578316   4.490257   4.861988
    40  H    4.965938   4.872098   3.978261   2.720215   2.656110
                   11         12         13         14         15
    11  C    0.000000
    12  N    8.330345   0.000000
    13  C    9.787874   1.478380   0.000000
    14  C    9.976596   2.334303   1.535710   0.000000
    15  N    8.584737   2.086198   2.329702   1.511464   0.000000
    16  C    7.641057   1.270353   2.335697   2.372737   1.306507
    17  C    3.614406   4.916194   6.317997   6.376861   4.970549
    18  N    4.608254   4.630646   5.891036   5.662780   4.175579
    19  C    5.783277   3.544912   4.704761   4.399201   2.909696
    20  C    6.297634   2.307210   3.622118   3.687134   2.390537
    21  C    5.564681   2.779009   4.252338   4.709936   3.603635
    22  C    4.223427   4.120116   5.589940   5.954951   4.720367
    23  H    2.492089  10.769791  12.237431  12.465909  11.076708
    24  H    4.763482  13.028453  14.474062  14.571359  13.131255
    25  H    4.762450  13.025515  14.470866  14.567627  13.127770
    26  H    5.394450  13.194039  14.566927  14.410720  12.915073
    27  H    5.393066  13.194149  14.567282  14.411643  12.915772
    28  H    4.068193  11.050325  12.368664  12.094188  10.585085
    29  H    3.281040   8.961808  10.246415   9.931959   8.421835
    30  H    2.072781   6.705545   8.183865   8.610570   7.353748
    31  H    1.101605   8.969610  10.444074  10.756242   9.414482
    32  H    8.012798   1.046686   2.213987   3.344320   3.085322
    33  H   10.292092   2.132592   1.113722   2.215790   3.100422
    34  H   10.292385   2.132512   1.113728   2.215733   3.099217
    35  H   10.567827   3.101306   2.216208   1.114076   2.169540
    36  H   10.564922   3.099951   2.216076   1.114088   2.169309
    37  H    8.539292   3.072342   3.319691   2.220790   1.027744
    38  H    6.574706   3.942751   4.835011   4.174640   2.678528
    39  H    6.195214   2.548492   3.983363   4.787920   3.977028
    40  H    3.946833   4.742809   6.217574   6.779219   5.652856
                   16         17         18         19         20
    16  C    0.000000
    17  C    4.075626   0.000000
    18  N    3.557035   1.271368   0.000000
    19  C    2.375899   2.219676   1.265888   0.000000
    20  C    1.348581   2.727775   2.324696   1.344903   0.000000
    21  C    2.364856   2.350862   2.628515   2.248400   1.344987
    22  C    3.582528   1.349108   2.233107   2.556162   2.330524
    23  H   10.123623   6.106220   7.063406   8.262285   8.783469
    24  H   12.283829   8.226440   9.006364  10.252120  10.939297
    25  H   12.280764   8.224290   9.003738  10.249222  10.936528
    26  H   12.269888   8.299761   8.772300  10.025668  10.955106
    27  H   12.270139   8.299167   8.772203  10.025818  10.955076
    28  H   10.039656   6.209525   6.485991   7.720616   8.759464
    29  H    7.912001   4.235447   4.355381   5.571858   6.658145
    30  H    6.238131   2.717254   3.975951   4.869202   4.966232
    31  H    8.393184   4.483286   5.574234   6.694990   7.070501
    32  H    2.031958   4.836421   4.825681   3.925878   2.584370
    33  H    3.068330   6.897672   6.535077   5.383156   4.274500
    34  H    3.067391   6.897038   6.533996   5.381915   4.273577
    35  H    3.109360   6.978174   6.209378   4.960950   4.356898
    36  H    3.108223   6.976248   6.207954   4.959803   4.355466
    37  H    2.071571   4.963772   3.965275   2.756641   2.737286
    38  H    2.674648   3.161028   1.974976   1.102507   2.137148
    39  H    2.670739   3.328019   3.728123   3.283075   2.145636
    40  H    4.435955   2.152989   3.253468   3.655396   3.297102
                   21         22         23         24         25
    21  C    0.000000
    22  C    1.343386   0.000000
    23  H    7.992076   6.649710   0.000000
    24  H   10.278843   8.944971   2.598694   0.000000
    25  H   10.276588   8.943056   2.598715   1.826245   0.000000
    26  H   10.571337   9.300767   4.064363   3.008865   2.389799
    27  H   10.570813   9.299944   4.063050   2.389916   3.009660
    28  H    8.554782   7.369428   4.027782   4.048204   4.046547
    29  H    6.579692   5.497234   4.553141   5.556097   5.553949
    30  H    3.946707   2.655627   4.187246   6.628305   6.627245
    31  H    6.191739   4.857860   1.866133   4.370883   4.370539
    32  H    2.508857   3.809114  10.384558  12.719128  12.716539
    33  H    4.778622   6.102619  12.713219  15.031715  14.917297
    34  H    4.778217   6.102286  12.714143  14.921484  15.029754
    35  H    5.402643   6.615327  13.052166  15.065131  15.171759
    36  H    5.400757   6.613233  13.048621  15.171946  15.057343
    37  H    4.068427   4.992558  11.014854  12.947409  12.943740
    38  H    3.278903   3.654009   9.011718  10.858787  10.855565
    39  H    1.101780   2.094884   8.525099  10.892455  10.890374
    40  H    2.072199   1.100237   6.208183   8.611514   8.610121
                   26         27         28         29         30
    26  H    0.000000
    27  H    1.831215   0.000000
    28  H    2.625000   2.625317   0.000000
    29  H    4.648178   4.648114   2.167308   0.000000
    30  H    7.444266   7.442859   6.020680   4.758435   0.000000
    31  H    5.486399   5.484726   4.647116   4.250698   2.325678
    32  H   13.072115  13.071898  11.045396   9.029069   6.231304
    33  H   15.076175  15.186900  12.966679  10.862295   8.630799
    34  H   15.186818  15.076558  12.966377  10.861621   8.631223
    35  H   14.950356  14.838969  12.554169  10.394365   9.252101
    36  H   14.834922  14.948694  12.551812  10.392427   9.249227
    37  H   12.548965  12.549909  10.153473   7.987895   7.532266
    38  H   10.407879  10.408419   8.007070   5.840647   5.868405
    39  H   11.369278  11.368609   9.462569   7.556143   4.355009
    40  H    9.248137   9.246897   7.541707   5.872701   2.027391
                   31         32         33         34         35
    31  H    0.000000
    32  H    8.544177   0.000000
    33  H   10.905992   2.600800   0.000000
    34  H   10.906645   2.601309   1.826040   0.000000
    35  H   11.366227   4.066122   3.008597   2.389615   0.000000
    36  H   11.363013   4.064446   2.389507   3.009340   1.831228
    37  H    9.446350   4.028163   4.046749   4.045374   2.623229
    38  H    7.549178   4.549641   5.543828   5.542272   4.629882
    39  H    6.675213   1.886714   4.391781   4.391880   5.499865
    40  H    4.351406   4.210771   6.649687   6.649712   7.452641
                   36         37         38         39         40
    36  H    0.000000
    37  H    2.623386   0.000000
    38  H    4.629335   2.148705   0.000000
    39  H    5.497833   4.650269   4.247571   0.000000
    40  H    7.450302   6.016123   4.754109   2.329278   0.000000
 Stoichiometry    C16H18N6(2+)
 Framework group  C1[X(C16H18N6)]
 Deg. of freedom   114
 Full point group                 C1      NOp   1
 Largest Abelian subgroup         C1      NOp   1
 Largest concise Abelian subgroup C1      NOp   1
                         Standard orientation:                         
 ---------------------------------------------------------------------
 Center     Atomic      Atomic             Coordinates (Angstroms)
 Number     Number       Type             X           Y           Z
 ---------------------------------------------------------------------
      1          7           0        5.530548    0.896177    0.001901
      2          6           0        6.975924    0.586604    0.003889
      3          6           0        6.958562   -0.949347    0.001317
      4          7           0        5.466048   -1.188658    0.000097
      5          6           0        4.743521   -0.100918    0.000321
      6          6           0        3.399938    0.017262   -0.000733
      7          6           0        2.549575   -1.025914   -0.001911
      8          7           0        1.285348   -0.948411   -0.002451
      9          6           0        0.681855    0.170787   -0.002095
     10          6           0        1.443640    1.283152   -0.001310
     11          6           0        2.784303    1.213288   -0.000531
     12          7           0       -5.540062    0.897711    0.000821
     13          6           0       -6.982714    0.574661    0.001784
     14          6           0       -6.952535   -0.960751    0.003588
     15          7           0       -5.458083   -1.186875    0.001402
     16          6           0       -4.744344   -0.092555    0.000294
     17          6           0       -0.677440    0.173930   -0.002175
     18          7           0       -1.289795   -0.940250   -0.002080
     19          6           0       -2.553638   -1.012175   -0.001372
     20          6           0       -3.401509    0.031797   -0.000879
     21          6           0       -2.780366    1.224764   -0.001447
     22          6           0       -1.438465    1.287902   -0.002014
     23          1           0        5.184489    1.883813    0.002642
     24          1           0        7.456204    1.009684   -0.907532
     25          1           0        7.452616    1.006462    0.918706
     26          1           0        7.423046   -1.383152    0.916338
     27          1           0        7.423699   -1.380000   -0.914874
     28          1           0        5.083757   -2.142707   -0.000958
     29          1           0        2.917842   -2.065033   -0.002212
     30          1           0        1.017737    2.297570   -0.000936
     31          1           0        3.339615    2.164688    0.000369
     32          1           0       -5.200068    1.887639    0.000312
     33          1           0       -7.464674    0.993163    0.914444
     34          1           0       -7.465268    0.990920   -0.911594
     35          1           0       -7.415258   -1.398171   -0.910587
     36          1           0       -7.411870   -1.395753    0.920636
     37          1           0       -5.069714   -2.138415    0.001442
     38          1           0       -2.922788   -2.051044   -0.001039
     39          1           0       -3.335587    2.176420   -0.001136
     40          1           0       -1.009650    2.301135   -0.002195
 ---------------------------------------------------------------------
 Rotational constants (GHZ):      1.7932115      0.0857763      0.0820397
 Standard basis: 6-311++G(d,p) (5D, 7F)
 There are   632 symmetry adapted cartesian basis functions of A   symmetry.
 There are   610 symmetry adapted basis functions of A   symmetry.
   610 basis functions,   954 primitive gaussians,   632 cartesian basis functions
    77 alpha electrons       77 beta electrons
       nuclear repulsion energy      1654.1592387752 Hartrees.
 NAtoms=   40 NActive=   40 NUniq=   40 SFac= 1.00D+00 NAtFMM=   60 NAOKFM=F Big=F
 Integral buffers will be    131072 words long.
 Raffenetti 2 integral format.
 Two-electron integral symmetry is turned on.
 One-electron integrals computed using PRISM.
 NBasis=   610 RedAO= T EigKep=  1.63D-06  NBF=   610
 NBsUse=   603 1.00D-06 EigRej=  5.75D-07 NBFU=   603
 ExpMin= 3.60D-02 ExpMax= 6.29D+03 ExpMxC= 9.49D+02 IAcc=3 IRadAn=         5 AccDes= 0.00D+00
 Harris functional with IExCor=  402 and IRadAn=       5 diagonalized for initial guess.
 HarFok:  IExCor=  402 AccDes= 0.00D+00 IRadAn=         5 IDoV= 1 UseB2=F ITyADJ=14
 ICtDFT=  3500011 ScaDFX=  1.000000  1.000000  1.000000  1.000000
 FoFCou: FMM=F IPFlag=           0 FMFlag=      100000 FMFlg1=           0
         NFxFlg=           0 DoJE=T BraDBF=F KetDBF=T FulRan=T
         wScrn=  0.000000 ICntrl=     500 IOpCl=  0 I1Cent=   200000004 NGrid=           0
         NMat0=    1 NMatS0=      1 NMatT0=    0 NMatD0=    1 NMtDS0=    0 NMtDT0=    0
 Petite list used in FoFCou.
 Requested convergence on RMS density matrix=1.00D-08 within 128 cycles.
 Requested convergence on MAX density matrix=1.00D-06.
 Requested convergence on             energy=1.00D-06.
 No special actions if energy rises.
 SCF Done:  E(RB3LYP) =  -948.688641698     A.U. after   14 cycles
            NFock= 14  Conv=0.29D-08     -V/T= 2.0013

 **********************************************************************

            Population analysis using the SCF density.

 **********************************************************************

 Orbital symmetries:
       Occupied  (A) (A) (A) (A) (A) (A) (A) (A) (A) (A) (A) (A)
                 (A) (A) (A) (A) (A) (A) (A) (A) (A) (A) (A) (A)
                 (A) (A) (A) (A) (A) (A) (A) (A) (A) (A) (A) (A)
                 (A) (A) (A) (A) (A) (A) (A) (A) (A) (A) (A) (A)
                 (A) (A) (A) (A) (A) (A) (A) (A) (A) (A) (A) (A)
                 (A) (A) (A) (A) (A) (A) (A) (A) (A) (A) (A) (A)
                 (A) (A) (A) (A) (A)
       Virtual   (A) (A) (A) (A) (A) (A) (A) (A) (A) (A) (A) (A)
                 (A) (A) (A) (A) (A) (A) (A) (A) (A) (A) (A) (A)
                 (A) (A) (A) (A) (A) (A) (A) (A) (A) (A) (A) (A)
                 (A) (A) (A) (A) (A) (A) (A) (A) (A) (A) (A) (A)
                 (A) (A) (A) (A) (A) (A) (A) (A) (A) (A) (A) (A)
                 (A) (A) (A) (A) (A) (A) (A) (A) (A) (A) (A) (A)
                 (A) (A) (A) (A) (A) (A) (A) (A) (A) (A) (A) (A)
                 (A) (A) (A) (A) (A) (A) (A) (A) (A) (A) (A) (A)
                 (A) (A) (A) (A) (A) (A) (A) (A) (A) (A) (A) (A)
                 (A) (A) (A) (A) (A) (A) (A) (A) (A) (A) (A) (A)
                 (A) (A) (A) (A) (A) (A) (A) (A) (A) (A) (A) (A)
                 (A) (A) (A) (A) (A) (A) (A) (A) (A) (A) (A) (A)
                 (A) (A) (A) (A) (A) (A) (A) (A) (A) (A) (A) (A)
                 (A) (A) (A) (A) (A) (A) (A) (A) (A) (A) (A) (A)
                 (A) (A) (A) (A) (A) (A) (A) (A) (A) (A) (A) (A)
                 (A) (A) (A) (A) (A) (A) (A) (A) (A) (A) (A) (A)
                 (A) (A) (A) (A) (A) (A) (A) (A) (A) (A) (A) (A)
                 (A) (A) (A) (A) (A) (A) (A) (A) (A) (A) (A) (A)
                 (A) (A) (A) (A) (A) (A) (A) (A) (A) (A) (A) (A)
                 (A) (A) (A) (A) (A) (A) (A) (A) (A) (A) (A) (A)
                 (A) (A) (A) (A) (A) (A) (A) (A) (A) (A) (A) (A)
                 (A) (A) (A) (A) (A) (A) (A) (A) (A) (A) (A) (A)
                 (A) (A) (A) (A) (A) (A) (A) (A) (A) (A) (A) (A)
                 (A) (A) (A) (A) (A) (A) (A) (A) (A) (A) (A) (A)
                 (A) (A) (A) (A) (A) (A) (A) (A) (A) (A) (A) (A)
                 (A) (A) (A) (A) (A) (A) (A) (A) (A) (A) (A) (A)
                 (A) (A) (A) (A) (A) (A) (A) (A) (A) (A) (A) (A)
                 (A) (A) (A) (A) (A) (A) (A) (A) (A) (A) (A) (A)
                 (A) (A) (A) (A) (A) (A) (A) (A) (A) (A) (A) (A)
                 (A) (A) (A) (A) (A) (A) (A) (A) (A) (A) (A) (A)
                 (A) (A) (A) (A) (A) (A) (A) (A) (A) (A) (A) (A)
                 (A) (A) (A) (A) (A) (A) (A) (A) (A) (A) (A) (A)
                 (A) (A) (A) (A) (A) (A) (A) (A) (A) (A) (A) (A)
                 (A) (A) (A) (A) (A) (A) (A) (A) (A) (A) (A) (A)
                 (A) (A) (A) (A) (A) (A) (A) (A) (A) (A) (A) (A)
                 (A) (A) (A) (A) (A) (A) (A) (A) (A) (A) (A) (A)
                 (A) (A) (A) (A) (A) (A) (A) (A) (A) (A) (A) (A)
                 (A) (A) (A) (A) (A) (A) (A) (A) (A) (A) (A) (A)
                 (A) (A) (A) (A) (A) (A) (A) (A) (A) (A) (A) (A)
                 (A) (A) (A) (A) (A) (A) (A) (A) (A) (A) (A) (A)
                 (A) (A) (A) (A) (A) (A) (A) (A) (A) (A) (A) (A)
                 (A) (A) (A) (A) (A) (A) (A) (A) (A) (A) (A) (A)
                 (A) (A) (A) (A) (A) (A) (A) (A) (A) (A) (A) (A)
                 (A) (A) (A) (A) (A) (A) (A) (A) (A) (A)
 The electronic state is 1-A.
 Alpha  occ. eigenvalues --  -14.59628 -14.59608 -14.59146 -14.59121 -14.51858
 Alpha  occ. eigenvalues --  -14.51807 -10.51307 -10.51306 -10.44929 -10.44916
 Alpha  occ. eigenvalues --  -10.44828 -10.44828 -10.43439 -10.43390 -10.43025
 Alpha  occ. eigenvalues --  -10.42956 -10.42288 -10.42284 -10.41840 -10.41809
 Alpha  occ. eigenvalues --  -10.40321 -10.40319  -1.28689  -1.28665  -1.23300
 Alpha  occ. eigenvalues --   -1.20731  -1.14088  -1.14063  -1.09778  -1.08538
 Alpha  occ. eigenvalues --   -1.05274  -1.02627  -1.01590  -0.98686  -0.93898
 Alpha  occ. eigenvalues --   -0.90793  -0.89589  -0.88933  -0.88229  -0.87313
 Alpha  occ. eigenvalues --   -0.87033  -0.84155  -0.82007  -0.81555  -0.78451
 Alpha  occ. eigenvalues --   -0.76812  -0.74824  -0.73897  -0.73873  -0.73673
 Alpha  occ. eigenvalues --   -0.71932  -0.70592  -0.70466  -0.68744  -0.67885
 Alpha  occ. eigenvalues --   -0.67458  -0.66714  -0.66670  -0.66512  -0.64726
 Alpha  occ. eigenvalues --   -0.64470  -0.64319  -0.62455  -0.62333  -0.61966
 Alpha  occ. eigenvalues --   -0.61866  -0.61861  -0.61400  -0.61243  -0.54858
 Alpha  occ. eigenvalues --   -0.52774  -0.52696  -0.49011  -0.48962  -0.48458
 Alpha  occ. eigenvalues --   -0.48361  -0.45971
 Alpha virt. eigenvalues --   -0.32657  -0.27364  -0.25618  -0.23491  -0.21219
 Alpha virt. eigenvalues --   -0.21011  -0.19970  -0.18756  -0.18217  -0.17474
 Alpha virt. eigenvalues --   -0.17096  -0.17074  -0.15940  -0.15836  -0.15675
 Alpha virt. eigenvalues --   -0.15228  -0.14419  -0.14380  -0.13664  -0.13649
 Alpha virt. eigenvalues --   -0.13545  -0.13382  -0.11837  -0.11831  -0.11686
 Alpha virt. eigenvalues --   -0.11459  -0.11116  -0.10963  -0.09978  -0.09491
 Alpha virt. eigenvalues --   -0.09072  -0.08971  -0.08510  -0.08475  -0.08388
 Alpha virt. eigenvalues --   -0.08013  -0.07282  -0.07171  -0.06934  -0.06850
 Alpha virt. eigenvalues --   -0.06816  -0.06182  -0.05638  -0.05631  -0.05590
 Alpha virt. eigenvalues --   -0.05197  -0.04767  -0.04747  -0.04723  -0.04294
 Alpha virt. eigenvalues --   -0.04117  -0.03451  -0.03405  -0.03139  -0.03099
 Alpha virt. eigenvalues --   -0.03083  -0.02971  -0.02936  -0.02661  -0.02611
 Alpha virt. eigenvalues --   -0.01731  -0.01719  -0.01421  -0.00837  -0.00819
 Alpha virt. eigenvalues --   -0.00225  -0.00170   0.00324   0.00367   0.00648
 Alpha virt. eigenvalues --    0.00847   0.01455   0.01909   0.02290   0.02364
 Alpha virt. eigenvalues --    0.02521   0.02649   0.02895   0.03006   0.03176
 Alpha virt. eigenvalues --    0.03268   0.03778   0.04051   0.04220   0.04700
 Alpha virt. eigenvalues --    0.04879   0.05276   0.05519   0.05721   0.05951
 Alpha virt. eigenvalues --    0.06220   0.06520   0.06684   0.06725   0.07443
 Alpha virt. eigenvalues --    0.07862   0.07896   0.08012   0.08040   0.08559
 Alpha virt. eigenvalues --    0.08777   0.09051   0.09205   0.09622   0.09790
 Alpha virt. eigenvalues --    0.10495   0.10791   0.10842   0.11160   0.11694
 Alpha virt. eigenvalues --    0.11791   0.11957   0.12282   0.12739   0.13202
 Alpha virt. eigenvalues --    0.13705   0.13986   0.14750   0.14959   0.15168
 Alpha virt. eigenvalues --    0.15217   0.15775   0.15913   0.15932   0.16972
 Alpha virt. eigenvalues --    0.17035   0.18012   0.19027   0.19096   0.19735
 Alpha virt. eigenvalues --    0.20076   0.21712   0.22361   0.23763   0.24176
 Alpha virt. eigenvalues --    0.24713   0.25646   0.26288   0.26353   0.27025
 Alpha virt. eigenvalues --    0.27721   0.27821   0.27920   0.29008   0.30494
 Alpha virt. eigenvalues --    0.30869   0.31713   0.32046   0.33766   0.34011
 Alpha virt. eigenvalues --    0.34323   0.34344   0.35159   0.36254   0.36515
 Alpha virt. eigenvalues --    0.36600   0.36627   0.36896   0.37304   0.38178
 Alpha virt. eigenvalues --    0.38207   0.38666   0.38772   0.39902   0.40880
 Alpha virt. eigenvalues --    0.40965   0.40974   0.41548   0.41653   0.42111
 Alpha virt. eigenvalues --    0.42168   0.42368   0.42945   0.43062   0.44124
 Alpha virt. eigenvalues --    0.44398   0.44644   0.45831   0.46360   0.46618
 Alpha virt. eigenvalues --    0.47061   0.47496   0.47735   0.48299   0.48523
 Alpha virt. eigenvalues --    0.48899   0.49480   0.50500   0.50946   0.52116
 Alpha virt. eigenvalues --    0.53346   0.53493   0.54605   0.54666   0.55442
 Alpha virt. eigenvalues --    0.55712   0.55852   0.56161   0.56163   0.56936
 Alpha virt. eigenvalues --    0.59638   0.60233   0.61120   0.61986   0.62485
 Alpha virt. eigenvalues --    0.62842   0.64552   0.65254   0.66054   0.66147
 Alpha virt. eigenvalues --    0.67075   0.67640   0.67694   0.68645   0.68916
 Alpha virt. eigenvalues --    0.69267   0.69868   0.70737   0.71048   0.71659
 Alpha virt. eigenvalues --    0.72243   0.73197   0.73873   0.74682   0.74798
 Alpha virt. eigenvalues --    0.75681   0.76386   0.76752   0.77266   0.77957
 Alpha virt. eigenvalues --    0.79122   0.79246   0.79606   0.79858   0.79941
 Alpha virt. eigenvalues --    0.81026   0.82017   0.82937   0.83424   0.84900
 Alpha virt. eigenvalues --    0.85437   0.85928   0.87183   0.87764   0.88385
 Alpha virt. eigenvalues --    0.88701   0.89517   0.90816   0.91524   0.92623
 Alpha virt. eigenvalues --    0.93566   0.95140   0.95745   0.96439   0.96864
 Alpha virt. eigenvalues --    0.97958   0.99238   0.99522   0.99529   1.00600
 Alpha virt. eigenvalues --    1.01818   1.01874   1.02533   1.08291   1.10059
 Alpha virt. eigenvalues --    1.10417   1.14261   1.17103   1.18322   1.19453
 Alpha virt. eigenvalues --    1.21153   1.22746   1.23104   1.25120   1.25155
 Alpha virt. eigenvalues --    1.25828   1.26591   1.26601   1.26935   1.28226
 Alpha virt. eigenvalues --    1.29720   1.31699   1.32341   1.32539   1.32764
 Alpha virt. eigenvalues --    1.33796   1.34547   1.35795   1.36850   1.36986
 Alpha virt. eigenvalues --    1.37822   1.38221   1.38647   1.40008   1.40498
 Alpha virt. eigenvalues --    1.41412   1.42265   1.42518   1.42636   1.42718
 Alpha virt. eigenvalues --    1.43857   1.44245   1.44845   1.45295   1.48065
 Alpha virt. eigenvalues --    1.48511   1.48828   1.50180   1.51416   1.52515
 Alpha virt. eigenvalues --    1.53277   1.53366   1.53815   1.54898   1.55085
 Alpha virt. eigenvalues --    1.56131   1.56308   1.56775   1.56796   1.57340
 Alpha virt. eigenvalues --    1.58577   1.61339   1.62977   1.64361   1.65301
 Alpha virt. eigenvalues --    1.65365   1.66093   1.67676   1.69894   1.72005
 Alpha virt. eigenvalues --    1.73871   1.74471   1.75114   1.76199   1.76411
 Alpha virt. eigenvalues --    1.77179   1.77443   1.78781   1.79264   1.81039
 Alpha virt. eigenvalues --    1.82724   1.84597   1.84640   1.85747   1.85917
 Alpha virt. eigenvalues --    1.86198   1.86289   1.88527   1.88975   1.89400
 Alpha virt. eigenvalues --    1.90145   1.90948   1.91896   1.92063   1.92935
 Alpha virt. eigenvalues --    1.93899   1.94405   1.96868   1.99852   2.00427
 Alpha virt. eigenvalues --    2.00694   2.01399   2.02672   2.03447   2.06933
 Alpha virt. eigenvalues --    2.10758   2.10907   2.11484   2.11804   2.12840
 Alpha virt. eigenvalues --    2.14125   2.14581   2.15451   2.18208   2.21650
 Alpha virt. eigenvalues --    2.21723   2.22373   2.22983   2.23019   2.23772
 Alpha virt. eigenvalues --    2.26576   2.26727   2.31202   2.31797   2.32501
 Alpha virt. eigenvalues --    2.33133   2.33825   2.36318   2.36703   2.37889
 Alpha virt. eigenvalues --    2.38132   2.38894   2.39422   2.41008   2.42913
 Alpha virt. eigenvalues --    2.44641   2.44674   2.45220   2.45554   2.47825
 Alpha virt. eigenvalues --    2.48435   2.49553   2.50600   2.51563   2.52838
 Alpha virt. eigenvalues --    2.53514   2.55727   2.56659   2.57189   2.58139
 Alpha virt. eigenvalues --    2.59500   2.60515   2.60920   2.61204   2.62856
 Alpha virt. eigenvalues --    2.64062   2.64307   2.65732   2.65786   2.66199
 Alpha virt. eigenvalues --    2.67581   2.68140   2.68648   2.68993   2.69574
 Alpha virt. eigenvalues --    2.70113   2.73144   2.74232   2.74372   2.75133
 Alpha virt. eigenvalues --    2.76349   2.77222   2.80368   2.80562   2.83710
 Alpha virt. eigenvalues --    2.84258   2.85254   2.86646   2.86986   2.87057
 Alpha virt. eigenvalues --    2.87243   2.89231   2.91303   2.91408   2.93412
 Alpha virt. eigenvalues --    3.05809   3.08195   3.13116   3.13848   3.14204
 Alpha virt. eigenvalues --    3.17955   3.20471   3.22126   3.25694   3.26020
 Alpha virt. eigenvalues --    3.30722   3.32018   3.32391   3.32461   3.33786
 Alpha virt. eigenvalues --    3.34908   3.35656   3.35876   3.37927   3.41701
 Alpha virt. eigenvalues --    3.45082   3.47229   3.49868   3.50727   3.53960
 Alpha virt. eigenvalues --    3.59523   3.59733   3.63493   3.64045   3.68431
 Alpha virt. eigenvalues --    3.71084   3.71262   3.71899   3.72089   3.72840
 Alpha virt. eigenvalues --    3.72985   3.78941   3.80532   3.87603   3.90448
 Alpha virt. eigenvalues --    3.98109   3.98415   4.05626   4.07616   4.10563
 Alpha virt. eigenvalues --    4.22770   4.27975   4.39786   4.46918   4.48771
 Alpha virt. eigenvalues --    4.58839   4.61200   4.61907   4.76634   4.80272
 Alpha virt. eigenvalues --    4.98086   4.98818   5.15224   5.28356  23.44054
 Alpha virt. eigenvalues --   23.57984  23.58187  23.58767  23.62008  23.63140
 Alpha virt. eigenvalues --   23.79373  23.85218  23.91952  23.94821  23.95217
 Alpha virt. eigenvalues --   24.02301  24.06104  24.09352  24.13519  24.16597
 Alpha virt. eigenvalues --   35.35363  35.36397  35.55733  35.56523  35.59359
 Alpha virt. eigenvalues --   35.68765
          Condensed to atoms (all electrons):
               1          2          3          4          5          6
     1  N    6.756384   0.261126  -0.145346  -0.150917   0.384714  -0.060787
     2  C    0.261126   5.810938  -0.354155  -0.122492  -0.088078   0.021198
     3  C   -0.145346  -0.354155   5.914595   0.327553  -0.164944   0.018305
     4  N   -0.150917  -0.122492   0.327553   6.794451   0.272123  -0.138185
     5  C    0.384714  -0.088078  -0.164944   0.272123   5.562970   0.204343
     6  C   -0.060787   0.021198   0.018305  -0.138185   0.204343   8.938325
     7  C    0.101454   0.070844  -0.043047   0.028671  -0.400532  -2.571716
     8  N   -0.001849   0.008901  -0.008468  -0.022817   0.092313   0.361776
     9  C   -0.018981   0.022805   0.007892  -0.040217  -0.047890  -0.964953
    10  C   -0.094912  -0.042073   0.030136   0.002781   0.057350  -0.400843
    11  C   -0.189293  -0.111799  -0.022899  -0.002798   0.190791   0.122419
    12  N    0.000000   0.000000   0.000000   0.000000   0.000000   0.000358
    13  C    0.000000   0.000000   0.000000   0.000000   0.000002  -0.000050
    14  C    0.000000   0.000000   0.000000   0.000000   0.000003  -0.000021
    15  N    0.000000   0.000000   0.000000   0.000000  -0.000015  -0.000285
    16  C    0.000000   0.000001   0.000003  -0.000015   0.000855   0.003732
    17  C    0.004159  -0.001577  -0.002770   0.005990  -0.091966   0.126982
    18  N   -0.000497   0.000231  -0.000156   0.000008   0.008808  -0.073453
    19  C    0.000476   0.000059  -0.000168   0.001691  -0.024272  -0.237332
    20  C    0.000389  -0.000052  -0.000019  -0.000284   0.003778   0.167371
    21  C    0.000297   0.000127  -0.000218   0.000211  -0.001742   0.166023
    22  C    0.001540  -0.000636   0.001249  -0.001987   0.070161   0.147445
    23  H    0.327694  -0.052322  -0.009900   0.007976  -0.016025  -0.040467
    24  H   -0.039196   0.421305  -0.037933   0.006195   0.002634  -0.009916
    25  H   -0.039067   0.421352  -0.037953   0.006098   0.002441  -0.009894
    26  H    0.011350  -0.032006   0.403106  -0.044912   0.005921  -0.004759
    27  H    0.011239  -0.031870   0.403159  -0.044743   0.005478  -0.004667
    28  H    0.013163   0.014180  -0.048317   0.323386   0.013784   0.021155
    29  H   -0.001904  -0.011648   0.020713   0.038240  -0.060636  -0.353853
    30  H   -0.013141  -0.003251  -0.001070  -0.000098   0.010801  -0.022223
    31  H    0.018856   0.013075   0.011160   0.002114   0.002243  -0.120939
    32  H    0.000003   0.000000   0.000000   0.000001  -0.000020  -0.000234
    33  H    0.000000   0.000000   0.000000   0.000000   0.000000   0.000002
    34  H    0.000000   0.000000   0.000000   0.000000   0.000000   0.000002
    35  H    0.000000   0.000000   0.000000   0.000000   0.000000   0.000000
    36  H    0.000000   0.000000   0.000000   0.000000   0.000000   0.000000
    37  H    0.000000  -0.000001   0.000001  -0.000001  -0.000022   0.000807
    38  H    0.000010   0.000035  -0.000055   0.000042  -0.000319  -0.019024
    39  H   -0.000121  -0.000014  -0.000006  -0.000006   0.000071   0.003126
    40  H    0.002062   0.000184   0.000273   0.000172  -0.000714  -0.010112
               7          8          9         10         11         12
     1  N    0.101454  -0.001849  -0.018981  -0.094912  -0.189293   0.000000
     2  C    0.070844   0.008901   0.022805  -0.042073  -0.111799   0.000000
     3  C   -0.043047  -0.008468   0.007892   0.030136  -0.022899   0.000000
     4  N    0.028671  -0.022817  -0.040217   0.002781  -0.002798   0.000000
     5  C   -0.400532   0.092313  -0.047890   0.057350   0.190791   0.000000
     6  C   -2.571716   0.361776  -0.964953  -0.400843   0.122419   0.000358
     7  C   14.032499  -0.511669   0.018290  -3.204885  -2.144780   0.000480
     8  N   -0.511669   6.513247   0.353527   0.209841   0.008745  -0.000485
     9  C    0.018290   0.353527   8.153619   0.016500  -0.245633   0.004199
    10  C   -3.204885   0.209841   0.016500   8.268076   1.334420   0.001339
    11  C   -2.144780   0.008745  -0.245633   1.334420   6.880373   0.000285
    12  N    0.000480  -0.000485   0.004199   0.001339   0.000285   6.752527
    13  C    0.000061   0.000253  -0.001729  -0.000509   0.000129   0.260565
    14  C   -0.000171  -0.000188  -0.002625   0.001176  -0.000225  -0.141401
    15  N    0.001697  -0.000002   0.006100  -0.002091   0.000211  -0.149850
    16  C   -0.025032   0.009014  -0.091785   0.070497  -0.001852   0.384982
    17  C    0.413939  -0.117959   0.043704  -0.794254  -0.275433  -0.016586
    18  N   -0.100233   0.112340  -0.119723   0.165118   0.037303  -0.001941
    19  C    0.876654  -0.096893   0.412224  -1.015714   0.004835   0.101278
    20  C   -0.238352  -0.074038   0.123184   0.142893   0.171208  -0.061399
    21  C    0.008526   0.035926  -0.269083   0.048535   0.010574  -0.189127
    22  C   -1.019397   0.163854  -0.800265   1.201717   0.057264  -0.094278
    23  H    0.046371   0.000163   0.012333  -0.016346   0.042195   0.000003
    24  H   -0.004217   0.000120   0.000177   0.000829   0.011492   0.000000
    25  H   -0.004245   0.000122   0.000170   0.000831   0.011515   0.000000
    26  H   -0.002803   0.000097   0.000327   0.000403   0.005922   0.000000
    27  H   -0.002827   0.000095   0.000329   0.000412   0.005938   0.000000
    28  H   -0.077633   0.010182   0.005700   0.018684   0.024131   0.000000
    29  H    0.923401  -0.200304   0.014611  -0.135249  -0.096957   0.000011
    30  H   -0.025089   0.022177   0.101671   0.413290  -0.092112   0.002014
    31  H   -0.062214   0.003129  -0.011670   0.027658   0.363858  -0.000119
    32  H    0.001065   0.000153   0.000962  -0.004858   0.000865   0.327772
    33  H   -0.000005   0.000004  -0.000026   0.000003  -0.000001  -0.039400
    34  H   -0.000005   0.000004  -0.000024   0.000003   0.000000  -0.039228
    35  H   -0.000007  -0.000002  -0.000031   0.000006  -0.000002   0.011004
    36  H   -0.000007  -0.000002  -0.000030   0.000007  -0.000002   0.010861
    37  H   -0.002088   0.000278  -0.001730   0.001444  -0.000179   0.013084
    38  H    0.047120  -0.009892   0.025325  -0.030295  -0.000607  -0.001677
    39  H   -0.002893   0.001525  -0.012082   0.029398  -0.009653   0.019016
    40  H   -0.020365  -0.009588  -0.056177   0.021516  -0.003932  -0.012822
              13         14         15         16         17         18
     1  N    0.000000   0.000000   0.000000   0.000000   0.004159  -0.000497
     2  C    0.000000   0.000000   0.000000   0.000001  -0.001577   0.000231
     3  C    0.000000   0.000000   0.000000   0.000003  -0.002770  -0.000156
     4  N    0.000000   0.000000   0.000000  -0.000015   0.005990   0.000008
     5  C    0.000002   0.000003  -0.000015   0.000855  -0.091966   0.008808
     6  C   -0.000050  -0.000021  -0.000285   0.003732   0.126982  -0.073453
     7  C    0.000061  -0.000171   0.001697  -0.025032   0.413939  -0.100233
     8  N    0.000253  -0.000188  -0.000002   0.009014  -0.117959   0.112340
     9  C   -0.001729  -0.002625   0.006100  -0.091785   0.043704  -0.119723
    10  C   -0.000509   0.001176  -0.002091   0.070497  -0.794254   0.165118
    11  C    0.000129  -0.000225   0.000211  -0.001852  -0.275433   0.037303
    12  N    0.260565  -0.141401  -0.149850   0.384982  -0.016586  -0.001941
    13  C    5.815637  -0.354463  -0.123166  -0.087816   0.023483   0.009129
    14  C   -0.354463   5.909970   0.326199  -0.169221   0.007161  -0.008883
    15  N   -0.123166   0.326199   6.794166   0.269507  -0.040927  -0.022919
    16  C   -0.087816  -0.169221   0.269507   5.578119  -0.041065   0.095850
    17  C    0.023483   0.007161  -0.040927  -0.041065   8.142647   0.345959
    18  N    0.009129  -0.008883  -0.022919   0.095850   0.345959   6.511887
    19  C    0.069207  -0.042528   0.025367  -0.437703   0.027594  -0.497409
    20  C    0.027252   0.011288  -0.139356   0.204322  -0.962865   0.361867
    21  C   -0.117808  -0.012747   0.003683   0.203921  -0.245826   0.004062
    22  C   -0.043506   0.031701   0.003419   0.067574  -0.000559   0.208373
    23  H    0.000000   0.000000   0.000001  -0.000022   0.001069   0.000148
    24  H    0.000000   0.000000   0.000000   0.000000  -0.000021   0.000004
    25  H    0.000000   0.000000   0.000000   0.000000  -0.000026   0.000004
    26  H    0.000000   0.000000   0.000000   0.000000  -0.000030  -0.000002
    27  H    0.000000   0.000000   0.000000   0.000000  -0.000032  -0.000002
    28  H   -0.000001   0.000001  -0.000001  -0.000021  -0.001691   0.000276
    29  H    0.000035  -0.000055   0.000041  -0.000352   0.024854  -0.009726
    30  H    0.000194   0.000265   0.000186  -0.000754  -0.057101  -0.009541
    31  H   -0.000014  -0.000006  -0.000007   0.000083  -0.012748   0.001543
    32  H   -0.051855  -0.009104   0.007911  -0.014509   0.012123   0.000289
    33  H    0.420638  -0.037865   0.006277   0.003406   0.000181   0.000119
    34  H    0.420731  -0.037795   0.006169   0.002973   0.000163   0.000123
    35  H   -0.032524   0.404075  -0.044571   0.005690   0.000333   0.000095
    36  H   -0.032612   0.403996  -0.044486   0.005842   0.000306   0.000101
    37  H    0.014125  -0.049455   0.323035   0.015574   0.005565   0.010480
    38  H   -0.011808   0.021550   0.038437  -0.066078   0.015456  -0.201950
    39  H    0.013242   0.010564   0.002082   0.000215  -0.009785   0.002739
    40  H   -0.003250  -0.001026  -0.000166   0.010561   0.100575   0.022766
              19         20         21         22         23         24
     1  N    0.000476   0.000389   0.000297   0.001540   0.327694  -0.039196
     2  C    0.000059  -0.000052   0.000127  -0.000636  -0.052322   0.421305
     3  C   -0.000168  -0.000019  -0.000218   0.001249  -0.009900  -0.037933
     4  N    0.001691  -0.000284   0.000211  -0.001987   0.007976   0.006195
     5  C   -0.024272   0.003778  -0.001742   0.070161  -0.016025   0.002634
     6  C   -0.237332   0.167371   0.166023   0.147445  -0.040467  -0.009916
     7  C    0.876654  -0.238352   0.008526  -1.019397   0.046371  -0.004217
     8  N   -0.096893  -0.074038   0.035926   0.163854   0.000163   0.000120
     9  C    0.412224   0.123184  -0.269083  -0.800265   0.012333   0.000177
    10  C   -1.015714   0.142893   0.048535   1.201717  -0.016346   0.000829
    11  C    0.004835   0.171208   0.010574   0.057264   0.042195   0.011492
    12  N    0.101278  -0.061399  -0.189127  -0.094278   0.000003   0.000000
    13  C    0.069207   0.027252  -0.117808  -0.043506   0.000000   0.000000
    14  C   -0.042528   0.011288  -0.012747   0.031701   0.000000   0.000000
    15  N    0.025367  -0.139356   0.003683   0.003419   0.000001   0.000000
    16  C   -0.437703   0.204322   0.203921   0.067574  -0.000022   0.000000
    17  C    0.027594  -0.962865  -0.245826  -0.000559   0.001069  -0.000021
    18  N   -0.497409   0.361867   0.004062   0.208373   0.000148   0.000004
    19  C   13.951331  -2.539136  -2.081499  -3.217530   0.001137  -0.000005
    20  C   -2.539136   8.925826   0.120382  -0.402883  -0.000257   0.000002
    21  C   -2.081499   0.120382   6.807825   1.333499   0.000913  -0.000001
    22  C   -3.217530  -0.402883   1.333499   8.290413  -0.005153   0.000001
    23  H    0.001137  -0.000257   0.000913  -0.005153   0.369088   0.000932
    24  H   -0.000005   0.000002  -0.000001   0.000001   0.000932   0.425071
    25  H   -0.000005   0.000002   0.000000   0.000003   0.001005  -0.009434
    26  H   -0.000007   0.000000  -0.000002   0.000006   0.000493  -0.006939
    27  H   -0.000007   0.000000  -0.000002   0.000006   0.000475   0.010250
    28  H   -0.002017   0.000774  -0.000179   0.001437   0.001603   0.000166
    29  H    0.046191  -0.018563  -0.000459  -0.029972   0.001151  -0.000336
    30  H   -0.017694  -0.009517  -0.003173   0.018864   0.011220   0.000005
    31  H   -0.003454   0.003350  -0.009850   0.030949  -0.013126  -0.000632
    32  H    0.042703  -0.040557   0.042021  -0.014732  -0.000006   0.000000
    33  H   -0.004300  -0.010042   0.011310   0.000847   0.000000   0.000000
    34  H   -0.004236  -0.009913   0.011238   0.000821   0.000000   0.000000
    35  H   -0.002680  -0.004600   0.005574   0.000414   0.000000   0.000000
    36  H   -0.002702  -0.004607   0.005576   0.000411   0.000000   0.000000
    37  H   -0.079961   0.022511   0.024605   0.019353  -0.000002   0.000000
    38  H    0.930481  -0.361306  -0.095145  -0.137801   0.000074   0.000000
    39  H   -0.054664  -0.121322   0.362722   0.023532   0.000189   0.000000
    40  H   -0.029981  -0.023809  -0.091976   0.420785  -0.002683   0.000004
              25         26         27         28         29         30
     1  N   -0.039067   0.011350   0.011239   0.013163  -0.001904  -0.013141
     2  C    0.421352  -0.032006  -0.031870   0.014180  -0.011648  -0.003251
     3  C   -0.037953   0.403106   0.403159  -0.048317   0.020713  -0.001070
     4  N    0.006098  -0.044912  -0.044743   0.323386   0.038240  -0.000098
     5  C    0.002441   0.005921   0.005478   0.013784  -0.060636   0.010801
     6  C   -0.009894  -0.004759  -0.004667   0.021155  -0.353853  -0.022223
     7  C   -0.004245  -0.002803  -0.002827  -0.077633   0.923401  -0.025089
     8  N    0.000122   0.000097   0.000095   0.010182  -0.200304   0.022177
     9  C    0.000170   0.000327   0.000329   0.005700   0.014611   0.101671
    10  C    0.000831   0.000403   0.000412   0.018684  -0.135249   0.413290
    11  C    0.011515   0.005922   0.005938   0.024131  -0.096957  -0.092112
    12  N    0.000000   0.000000   0.000000   0.000000   0.000011   0.002014
    13  C    0.000000   0.000000   0.000000  -0.000001   0.000035   0.000194
    14  C    0.000000   0.000000   0.000000   0.000001  -0.000055   0.000265
    15  N    0.000000   0.000000   0.000000  -0.000001   0.000041   0.000186
    16  C    0.000000   0.000000   0.000000  -0.000021  -0.000352  -0.000754
    17  C   -0.000026  -0.000030  -0.000032  -0.001691   0.024854  -0.057101
    18  N    0.000004  -0.000002  -0.000002   0.000276  -0.009726  -0.009541
    19  C   -0.000005  -0.000007  -0.000007  -0.002017   0.046191  -0.017694
    20  C    0.000002   0.000000   0.000000   0.000774  -0.018563  -0.009517
    21  C    0.000000  -0.000002  -0.000002  -0.000179  -0.000459  -0.003173
    22  C    0.000003   0.000006   0.000006   0.001437  -0.029972   0.018864
    23  H    0.001005   0.000493   0.000475   0.001603   0.001151   0.011220
    24  H   -0.009434  -0.006939   0.010250   0.000166  -0.000336   0.000005
    25  H    0.424923   0.010240  -0.006912   0.000159  -0.000340   0.000008
    26  H    0.010240   0.432343  -0.010474   0.002566  -0.000845   0.000012
    27  H   -0.006912  -0.010474   0.432219   0.002613  -0.000855   0.000013
    28  H    0.000159   0.002566   0.002613   0.338618  -0.006270   0.000953
    29  H   -0.000340  -0.000845  -0.000855  -0.006270   0.679486  -0.002170
    30  H    0.000008   0.000012   0.000013   0.000953  -0.002170   0.619022
    31  H   -0.000644  -0.000239  -0.000236  -0.001293  -0.003113  -0.070781
    32  H    0.000000   0.000000   0.000000  -0.000002   0.000069  -0.002568
    33  H    0.000000   0.000000   0.000000   0.000000   0.000000   0.000004
    34  H    0.000000   0.000000   0.000000   0.000000   0.000000   0.000004
    35  H    0.000000   0.000000   0.000000   0.000000   0.000000  -0.000001
    36  H    0.000000   0.000000   0.000000   0.000000   0.000000  -0.000001
    37  H    0.000000   0.000000   0.000000   0.000004  -0.000104  -0.000224
    38  H    0.000000   0.000000   0.000000  -0.000102   0.002131   0.001817
    39  H    0.000000   0.000000   0.000000   0.000018  -0.000271   0.021625
    40  H    0.000004  -0.000001  -0.000001  -0.000201   0.001658  -0.074633
              31         32         33         34         35         36
     1  N    0.018856   0.000003   0.000000   0.000000   0.000000   0.000000
     2  C    0.013075   0.000000   0.000000   0.000000   0.000000   0.000000
     3  C    0.011160   0.000000   0.000000   0.000000   0.000000   0.000000
     4  N    0.002114   0.000001   0.000000   0.000000   0.000000   0.000000
     5  C    0.002243  -0.000020   0.000000   0.000000   0.000000   0.000000
     6  C   -0.120939  -0.000234   0.000002   0.000002   0.000000   0.000000
     7  C   -0.062214   0.001065  -0.000005  -0.000005  -0.000007  -0.000007
     8  N    0.003129   0.000153   0.000004   0.000004  -0.000002  -0.000002
     9  C   -0.011670   0.000962  -0.000026  -0.000024  -0.000031  -0.000030
    10  C    0.027658  -0.004858   0.000003   0.000003   0.000006   0.000007
    11  C    0.363858   0.000865  -0.000001   0.000000  -0.000002  -0.000002
    12  N   -0.000119   0.327772  -0.039400  -0.039228   0.011004   0.010861
    13  C   -0.000014  -0.051855   0.420638   0.420731  -0.032524  -0.032612
    14  C   -0.000006  -0.009104  -0.037865  -0.037795   0.404075   0.403996
    15  N   -0.000007   0.007911   0.006277   0.006169  -0.044571  -0.044486
    16  C    0.000083  -0.014509   0.003406   0.002973   0.005690   0.005842
    17  C   -0.012748   0.012123   0.000181   0.000163   0.000333   0.000306
    18  N    0.001543   0.000289   0.000119   0.000123   0.000095   0.000101
    19  C   -0.003454   0.042703  -0.004300  -0.004236  -0.002680  -0.002702
    20  C    0.003350  -0.040557  -0.010042  -0.009913  -0.004600  -0.004607
    21  C   -0.009850   0.042021   0.011310   0.011238   0.005574   0.005576
    22  C    0.030949  -0.014732   0.000847   0.000821   0.000414   0.000411
    23  H   -0.013126  -0.000006   0.000000   0.000000   0.000000   0.000000
    24  H   -0.000632   0.000000   0.000000   0.000000   0.000000   0.000000
    25  H   -0.000644   0.000000   0.000000   0.000000   0.000000   0.000000
    26  H   -0.000239   0.000000   0.000000   0.000000   0.000000   0.000000
    27  H   -0.000236   0.000000   0.000000   0.000000   0.000000   0.000000
    28  H   -0.001293  -0.000002   0.000000   0.000000   0.000000   0.000000
    29  H   -0.003113   0.000069   0.000000   0.000000   0.000000   0.000000
    30  H   -0.070781  -0.002568   0.000004   0.000004  -0.000001  -0.000001
    31  H    0.647573   0.000182   0.000000   0.000000   0.000000   0.000000
    32  H    0.000182   0.367816   0.001030   0.001091   0.000476   0.000467
    33  H    0.000000   0.001030   0.425276  -0.009444  -0.006935   0.010268
    34  H    0.000000   0.001091  -0.009444   0.425093   0.010273  -0.006912
    35  H    0.000000   0.000476  -0.006935   0.010273   0.432225  -0.010505
    36  H    0.000000   0.000467   0.010268  -0.006912  -0.010505   0.432139
    37  H    0.000020   0.001702   0.000203   0.000189   0.002588   0.002653
    38  H   -0.000302   0.000972  -0.000357  -0.000351  -0.000897  -0.000899
    39  H   -0.003155  -0.012148  -0.000645  -0.000661  -0.000227  -0.000225
    40  H    0.021945   0.010716   0.000007   0.000010   0.000011   0.000012
              37         38         39         40
     1  N    0.000000   0.000010  -0.000121   0.002062
     2  C   -0.000001   0.000035  -0.000014   0.000184
     3  C    0.000001  -0.000055  -0.000006   0.000273
     4  N   -0.000001   0.000042  -0.000006   0.000172
     5  C   -0.000022  -0.000319   0.000071  -0.000714
     6  C    0.000807  -0.019024   0.003126  -0.010112
     7  C   -0.002088   0.047120  -0.002893  -0.020365
     8  N    0.000278  -0.009892   0.001525  -0.009588
     9  C   -0.001730   0.025325  -0.012082  -0.056177
    10  C    0.001444  -0.030295   0.029398   0.021516
    11  C   -0.000179  -0.000607  -0.009653  -0.003932
    12  N    0.013084  -0.001677   0.019016  -0.012822
    13  C    0.014125  -0.011808   0.013242  -0.003250
    14  C   -0.049455   0.021550   0.010564  -0.001026
    15  N    0.323035   0.038437   0.002082  -0.000166
    16  C    0.015574  -0.066078   0.000215   0.010561
    17  C    0.005565   0.015456  -0.009785   0.100575
    18  N    0.010480  -0.201950   0.002739   0.022766
    19  C   -0.079961   0.930481  -0.054664  -0.029981
    20  C    0.022511  -0.361306  -0.121322  -0.023809
    21  C    0.024605  -0.095145   0.362722  -0.091976
    22  C    0.019353  -0.137801   0.023532   0.420785
    23  H   -0.000002   0.000074   0.000189  -0.002683
    24  H    0.000000   0.000000   0.000000   0.000004
    25  H    0.000000   0.000000   0.000000   0.000004
    26  H    0.000000   0.000000   0.000000  -0.000001
    27  H    0.000000   0.000000   0.000000  -0.000001
    28  H    0.000004  -0.000102   0.000018  -0.000201
    29  H   -0.000104   0.002131  -0.000271   0.001658
    30  H   -0.000224   0.001817   0.021625  -0.074633
    31  H    0.000020  -0.000302  -0.003155   0.021945
    32  H    0.001702   0.000972  -0.012148   0.010716
    33  H    0.000203  -0.000357  -0.000645   0.000007
    34  H    0.000189  -0.000351  -0.000661   0.000010
    35  H    0.002588  -0.000897  -0.000227   0.000011
[...]
       Atomic Center   10 is at   1.501887  1.410675  0.000581
       Atomic Center   11 is at   2.884984  1.333417  0.000616
       Atomic Center   12 is at  -5.828770  0.933145 -0.000869
       Atomic Center   13 is at  -7.234083  0.473569 -0.001247
       Atomic Center   14 is at  -7.074299 -1.070233  0.001624
       Atomic Center   15 is at  -5.605380 -1.233355  0.000976
       Atomic Center   16 is at  -4.961742 -0.072542  0.000005
       Atomic Center   17 is at  -0.748983  0.225934 -0.000113
       Atomic Center   18 is at  -1.340532 -0.977535  0.000458
       Atomic Center   19 is at  -2.659252 -1.048021  0.000470
       Atomic Center   20 is at  -3.503454  0.077002 -0.000094
       Atomic Center   21 is at  -2.884992  1.333436 -0.000771
       Atomic Center   22 is at  -1.501886  1.410676 -0.000783
       Atomic Center   23 is at   5.570028  1.906848  0.002483
       Atomic Center   24 is at   7.749567  0.843145 -0.885180
       Atomic Center   25 is at   7.747803  0.839770  0.890652
       Atomic Center   26 is at   7.503495 -1.537523  0.885016
       Atomic Center   27 is at   7.502342 -1.533836 -0.890681
       Atomic Center   28 is at   5.152938 -2.134081 -0.002428
       Atomic Center   29 is at   3.061130 -2.058128 -0.000864
       Atomic Center   30 is at   1.033323  2.384908  0.001065
       Atomic Center   31 is at   3.455859  2.254416  0.001032
       Atomic Center   32 is at  -5.570071  1.906846 -0.001999
       Atomic Center   33 is at  -7.749516  0.842987  0.885536
       Atomic Center   34 is at  -7.747889  0.839846 -0.890299
       Atomic Center   35 is at  -7.503506 -1.537440 -0.885004
       Atomic Center   36 is at  -7.502229 -1.534001  0.890695
       Atomic Center   37 is at  -5.152851 -2.134044  0.002168
       Atomic Center   38 is at  -3.061175 -2.058104  0.000907
       Atomic Center   39 is at  -3.455866  2.254428 -0.001272
       Atomic Center   40 is at  -1.033298  2.384900 -0.001379
 -----------------------------------------------------------------

              Electrostatic Properties (Atomic Units)

 -----------------------------------------------------------------
    Center     Electric         -------- Electric Field --------
               Potential          X             Y             Z
 -----------------------------------------------------------------
    1 Atom    -18.111194      0.006480      0.004599     -0.000021
    2 Atom    -14.502107      0.010392     -0.003378      0.000005
    3 Atom    -14.502531      0.010752      0.001167     -0.000005
    4 Atom    -18.111832      0.005303     -0.006149      0.000019
    5 Atom    -14.420292     -0.011004      0.001173      0.000000
    6 Atom    -14.512040     -0.003845     -0.000294     -0.000001
    7 Atom    -14.507333      0.005464     -0.002089      0.000000
    8 Atom    -18.190583     -0.025497     -0.038473     -0.000019
    9 Atom    -14.500598     -0.003278      0.004773      0.000003
   10 Atom    -14.539399     -0.001727      0.001302      0.000001
   11 Atom    -14.522573     -0.000620      0.001451      0.000001
   12 Atom    -18.111196     -0.006481      0.004599      0.000017
   13 Atom    -14.502106     -0.010392     -0.003379     -0.000004
   14 Atom    -14.502530     -0.010752      0.001167      0.000006
   15 Atom    -18.111833     -0.005304     -0.006151     -0.000019
   16 Atom    -14.420295      0.011004      0.001175      0.000000
   17 Atom    -14.500599      0.003278      0.004772     -0.000003
   18 Atom    -18.190583      0.025497     -0.038473      0.000021
   19 Atom    -14.507333     -0.005464     -0.002088      0.000000
   20 Atom    -14.512042      0.003846     -0.000294      0.000000
   21 Atom    -14.522573      0.000622      0.001451     -0.000001
   22 Atom    -14.539399      0.001726      0.001304     -0.000001
   23 Atom     -0.762678     -0.005699      0.022746      0.000037
   24 Atom     -0.889065      0.009184      0.006643     -0.015480
   25 Atom     -0.889092      0.009152      0.006583      0.015523
   26 Atom     -0.889434      0.007626     -0.008407      0.015468
   27 Atom     -0.889460      0.007605     -0.008342     -0.015512
   28 Atom     -0.763943     -0.010115     -0.020984     -0.000036
   29 Atom     -0.879345      0.006530     -0.017805     -0.000005
   30 Atom     -0.875432     -0.008251      0.017540      0.000010
   31 Atom     -0.862049      0.009905      0.016426      0.000006
   32 Atom     -0.762681      0.005702      0.022755     -0.000031
   33 Atom     -0.889064     -0.009182      0.006640      0.015482
   34 Atom     -0.889093     -0.009153      0.006585     -0.015521
   35 Atom     -0.889433     -0.007628     -0.008405     -0.015469
   36 Atom     -0.889459     -0.007604     -0.008344      0.015511
   37 Atom     -0.763942      0.010112     -0.020982      0.000030
   38 Atom     -0.879342     -0.006527     -0.017805      0.000007
   39 Atom     -0.862049     -0.009906      0.016431     -0.000008
   40 Atom     -0.875432      0.008249      0.017538     -0.000011
 -----------------------------------------------------------------
 -----------------------------------------------------
    Center         ---- Electric Field Gradient ----
                     XX            YY            ZZ
 -----------------------------------------------------
    1 Atom     -812.387336   -812.289283   -811.040341
    2 Atom     -500.689109   -500.407735   -500.105220
    3 Atom     -500.767496   -500.332159   -500.106130
    4 Atom     -812.363819   -812.307610   -811.050335
    5 Atom     -500.791533   -500.990630   -501.466246
    6 Atom     -500.717146   -500.451804   -500.817213
    7 Atom     -500.893966   -500.786977   -501.380819
    8 Atom     -814.489167   -813.882840   -815.393752
    9 Atom     -500.824732   -500.838443   -501.341133
   10 Atom     -500.774476   -500.772783   -501.262786
   11 Atom     -500.798141   -500.861256   -501.415560
   12 Atom     -812.387335   -812.289257   -811.040315
   13 Atom     -500.689100   -500.407752   -500.105220
   14 Atom     -500.767520   -500.332159   -500.106135
   15 Atom     -812.363834   -812.307620   -811.050380
   16 Atom     -500.791556   -500.990647   -501.466277
   17 Atom     -500.824728   -500.838438   -501.341124
   18 Atom     -814.489124   -813.882777   -815.393712
   19 Atom     -500.893954   -500.786976   -501.380802
   20 Atom     -500.717162   -500.451827   -500.817247
   21 Atom     -500.798148   -500.861241   -501.415564
   22 Atom     -500.774482   -500.772775   -501.262789
   23 Atom       -1.629408     -2.121283     -1.516669
   24 Atom       -1.790619     -1.741687     -1.980215
   25 Atom       -1.789978     -1.740786     -1.981835
   26 Atom       -1.763422     -1.768163     -1.979628
   27 Atom       -1.763090     -1.766906     -1.981291
   28 Atom       -1.702829     -2.036852     -1.513497
   29 Atom       -1.778382     -2.081244     -1.678465
   30 Atom       -1.778352     -2.057337     -1.659713
   31 Atom       -1.825952     -2.012249     -1.663326
   32 Atom       -1.629421     -2.121343     -1.516684
   33 Atom       -1.790594     -1.741649     -1.980273
   34 Atom       -1.790007     -1.740815     -1.981778
   35 Atom       -1.763437     -1.768125     -1.979654
   36 Atom       -1.763067     -1.766954     -1.981270
   37 Atom       -1.702847     -2.036821     -1.513495
   38 Atom       -1.778393     -2.081238     -1.678465
   39 Atom       -1.825964     -2.012269     -1.663334
   40 Atom       -1.778354     -2.057319     -1.659710
 -----------------------------------------------------
 -----------------------------------------------------
    Center         ---- Electric Field Gradient ----
                     XY            XZ            YZ
 -----------------------------------------------------
    1 Atom       -0.049027     -0.000520     -0.001488
    2 Atom        0.227029     -0.000187     -0.000359
    3 Atom       -0.152242      0.000151     -0.000390
    4 Atom        0.069373      0.000301     -0.001545
    5 Atom       -0.023079      0.000059      0.000683
    6 Atom        0.032076      0.000012      0.000155
    7 Atom       -0.027446     -0.000016      0.000227
    8 Atom        0.732604      0.000360      0.000728
    9 Atom        0.055302      0.000047      0.000248
   10 Atom       -0.006140      0.000033      0.000258
   11 Atom        0.002096      0.000040      0.000230
   12 Atom        0.049029     -0.000452      0.001204
   13 Atom       -0.227034     -0.000168      0.000336
   14 Atom        0.152232      0.000220      0.000347
   15 Atom       -0.069355      0.000388      0.001366
   16 Atom        0.023091      0.000006     -0.000605
   17 Atom       -0.055310      0.000048     -0.000283
   18 Atom       -0.732610      0.000390     -0.000800
   19 Atom        0.027445     -0.000030     -0.000261
   20 Atom       -0.032069      0.000010     -0.000174
   21 Atom       -0.002097      0.000021     -0.000285
   22 Atom        0.006133      0.000023     -0.000304
   23 Atom        0.144097      0.000184     -0.000866
   24 Atom       -0.062022      0.168242      0.123299
   25 Atom       -0.061125     -0.168074     -0.122497
   26 Atom        0.066631     -0.139516      0.154946
   27 Atom        0.065837      0.139489     -0.154131
   28 Atom       -0.228478     -0.000343     -0.000792
   29 Atom        0.162633      0.000073     -0.000159
   30 Atom        0.183409      0.000081     -0.000193
   31 Atom       -0.207983     -0.000107     -0.000161
   32 Atom       -0.144094      0.000149      0.000702
   33 Atom        0.061989      0.168238     -0.123268
   34 Atom        0.061155     -0.168084      0.122520
   35 Atom       -0.066623     -0.139536     -0.154917
   36 Atom       -0.065846      0.139459      0.154171
   37 Atom        0.228489     -0.000292      0.000691
   38 Atom       -0.162640      0.000080      0.000180
   39 Atom        0.207991     -0.000120      0.000192
   40 Atom       -0.183411      0.000102      0.000238
 -----------------------------------------------------
 -----------------------------------------------------
    Center         ---- Electric Field Gradient ----
                   ----       Eigenvalues       ----
 -----------------------------------------------------
    1 Atom     -812.407645   -812.268976   -811.040339
    2 Atom     -500.815508   -500.281337   -500.105219
    3 Atom     -500.815454   -500.284202   -500.106129
    4 Atom     -812.410565   -812.260865   -811.050333
    5 Atom     -501.466247   -500.993269   -500.788893
    6 Atom     -500.817213   -500.720969   -500.447981
    7 Atom     -501.380819   -500.900595   -500.780347
    8 Atom     -815.393752   -814.978856   -813.393150
    9 Atom     -501.341133   -500.887313   -500.775862
   10 Atom     -501.262787   -500.779828   -500.767431
   11 Atom     -501.415560   -500.861326   -500.798071
   12 Atom     -812.407641   -812.268952   -811.040314
   13 Atom     -500.815510   -500.281343   -500.105219
   14 Atom     -500.815470   -500.284210   -500.106134
   15 Atom     -812.410562   -812.260893   -811.050378
   16 Atom     -501.466278   -500.993289   -500.788913
   17 Atom     -501.341124   -500.887317   -500.775850
   18 Atom     -815.393712   -814.978813   -813.393087
   19 Atom     -501.380802   -500.900584   -500.780345
   20 Atom     -500.817247   -500.720983   -500.448006
   21 Atom     -501.415564   -500.861310   -500.798079
   22 Atom     -501.262789   -500.779821   -500.767436
   23 Atom       -2.160389     -1.590303     -1.516667
   24 Atom       -2.127704     -1.700563     -1.684253
   25 Atom       -2.127697     -1.700609     -1.684292
   26 Atom       -2.127115     -1.700183     -1.683915
   27 Atom       -2.127107     -1.700227     -1.683953
   28 Atom       -2.152852     -1.586830     -1.513495
   29 Atom       -2.152031     -1.707595     -1.678465
   30 Atom       -2.148273     -1.687416     -1.659713
   31 Atom       -2.146990     -1.691211     -1.663326
   32 Atom       -2.160444     -1.590321     -1.516683
   33 Atom       -2.127703     -1.700562     -1.684251
   34 Atom       -2.127698     -1.700609     -1.684293
   35 Atom       -2.127117     -1.700183     -1.683915
   36 Atom       -2.127109     -1.700228     -1.683953
   37 Atom       -2.152839     -1.586829     -1.513494
   38 Atom       -2.152033     -1.707598     -1.678465
   39 Atom       -2.147015     -1.691218     -1.663334
   40 Atom       -2.148260     -1.687413     -1.659710
 -----------------------------------------------------
 -----------------------------------------------------
    Center         ---- Electric Field Gradient ----
                       ( tensor representation )
                   3XX-RR        3YY-RR        3ZZ-RR
 -----------------------------------------------------
    1 Atom       -0.481683     -0.383629      0.865312
    2 Atom       -0.288421     -0.007047      0.295468
    3 Atom       -0.365568      0.069769      0.295799
    4 Atom       -0.456564     -0.400355      0.856919
    5 Atom        0.291269      0.092173     -0.383443
    6 Atom       -0.055092      0.210251     -0.155159
    7 Atom        0.126622      0.233611     -0.360232
    8 Atom        0.099420      0.705746     -0.805166
    9 Atom        0.176704      0.162993     -0.339697
   10 Atom        0.162206      0.163899     -0.326105
   11 Atom        0.226845      0.163730     -0.390574
   12 Atom       -0.481699     -0.383622      0.865320
   13 Atom       -0.288410     -0.007061      0.295471
   14 Atom       -0.365582      0.069779      0.295803
   15 Atom       -0.456556     -0.400342      0.856898
   16 Atom        0.291271      0.092180     -0.383451
   17 Atom        0.176702      0.162992     -0.339694
   18 Atom        0.099414      0.705761     -0.805175
   19 Atom        0.126624      0.233602     -0.360225
   20 Atom       -0.055083      0.210252     -0.155169
   21 Atom        0.226836      0.163743     -0.390579
   22 Atom        0.162200      0.163907     -0.326107
   23 Atom        0.126379     -0.365496      0.239118
   24 Atom        0.046888      0.095820     -0.142708
   25 Atom        0.047555      0.096747     -0.144302
   26 Atom        0.073650      0.068908     -0.142557
   27 Atom        0.074005      0.070190     -0.144195
   28 Atom        0.048230     -0.285793      0.237563
   29 Atom        0.067648     -0.235214      0.167566
   30 Atom        0.053449     -0.225537      0.172088
   31 Atom        0.007890     -0.178407      0.170516
   32 Atom        0.126395     -0.365527      0.239132
   33 Atom        0.046911      0.095856     -0.142767
   34 Atom        0.047526      0.096718     -0.144245
   35 Atom        0.073635      0.068947     -0.142582
   36 Atom        0.074030      0.070143     -0.144173
   37 Atom        0.048207     -0.285766      0.237559
   38 Atom        0.067639     -0.235206      0.167567
   39 Atom        0.007892     -0.178413      0.170522
   40 Atom        0.053440     -0.225525      0.172084
 -----------------------------------------------------
 -----------------------------------------------------
    Center         ---- Electric Field Gradient ----
                       ( tensor representation )
                   ----       Eigenvalues       ----
 -----------------------------------------------------
    1 Atom       -0.501992     -0.363322      0.865314
    2 Atom       -0.414820      0.119351      0.295469
    3 Atom       -0.413526      0.117726      0.295800
    4 Atom       -0.503311     -0.353611      0.856921
    5 Atom       -0.383444      0.089534      0.293910
    6 Atom       -0.155159     -0.058914      0.214073
    7 Atom       -0.360232      0.119992      0.240241
    8 Atom       -0.805166     -0.390270      1.195436
    9 Atom       -0.339697      0.114123      0.225574
   10 Atom       -0.326105      0.156854      0.169251
   11 Atom       -0.390575      0.163660      0.226914
   12 Atom       -0.502005     -0.363317      0.865322
   13 Atom       -0.414819      0.119347      0.295472
   14 Atom       -0.413532      0.117728      0.295804
   15 Atom       -0.503284     -0.353615      0.856899
   16 Atom       -0.383451      0.089537      0.293914
   17 Atom       -0.339694      0.114113      0.225580
   18 Atom       -0.805175     -0.390276      1.195451
   19 Atom       -0.360225      0.119993      0.240232
   20 Atom       -0.155169     -0.058904      0.214073
   21 Atom       -0.390579      0.163674      0.226906
   22 Atom       -0.326107      0.156861      0.169246
   23 Atom       -0.404603      0.165484      0.239119
   24 Atom       -0.290197      0.136943      0.153254
   25 Atom       -0.290164      0.136923      0.153241
   26 Atom       -0.290044      0.136888      0.153156
   27 Atom       -0.290011      0.136868      0.153143
   28 Atom       -0.401793      0.164229      0.237564
   29 Atom       -0.306001      0.138435      0.167566
   30 Atom       -0.316472      0.144384      0.172088
   31 Atom       -0.313147      0.142631      0.170516
   32 Atom       -0.404628      0.165495      0.239133
   33 Atom       -0.290198      0.136943      0.153255
   34 Atom       -0.290165      0.136924      0.153240
   35 Atom       -0.290045      0.136889      0.153156
   36 Atom       -0.290012      0.136869      0.153143
   37 Atom       -0.401785      0.164225      0.237560
   38 Atom       -0.306001      0.138434      0.167567
   39 Atom       -0.313159      0.142637      0.170522
   40 Atom       -0.316466      0.144382      0.172084
 -----------------------------------------------------

 Test job not archived.
 1|1|UNPC-NP-ALMACH|FOpt|RB3LYP|6-311++G(d,p)|C16H18N6(2+)|HERA|27-Aug-
 2018|0||# RB3LYP/6-311++G** Opt Test prop=EFG||C16N6H18||2,1|N,5.67854
 93628,-1.5720004383,-0.6414048427|C,6.7673270267,-2.5634595059,-0.5084
 271956|C,6.0257709127,-3.785978721,0.0952231845|N,4.6390665447,-3.2872
 610962,0.2077282824|C,4.508127005,-2.0382996694,-0.2220908149|C,3.2518
 116985,-1.282940279,-0.2321779197|C,2.0558950436,-1.8586460728,0.23332
 54117|N,0.8947862062,-1.229705642,0.2493807964|C,0.8272124083,0.032180
 217,-0.1993272136|C,1.9639639945,0.6973067767,-0.6850233992|C,3.180470
 9485,0.0348908144,-0.7005554529|N,-4.8269996774,3.4663134328,-0.258427
 1591|C,-6.2711919773,3.6894567105,-0.0334124384|C,-6.7236389612,2.3308
 380012,0.5651785068|N,-5.4631317894,1.5593178028,0.5796251977|C,-4.434
 4133436,2.2511438544,0.1054162838|C,-0.5226898477,0.6796426041,-0.1499
 800283|N,-1.5210414834,-0.0704928563,0.3387520682|C,-2.7366603097,0.44
 06079083,0.4097401189|C,-3.0624682143,1.7457729102,-0.0010462692|C,-2.
 0194020531,2.5285149202,-0.5113916904|C,-0.7431504868,1.9952295036,-0.
 5871345081|H,5.8222110565,-0.6457378409,-1.0107794723|H,7.2010416516,-
 2.7772258139,-1.485525155|H,7.546082791,-2.1787312071,0.1504286025|H,6
 .4055040904,-4.0623043683,1.0791232935|H,6.0579821265,-4.6592323953,-0
 .5567316716|H,3.8827334062,-3.8450762316,0.5721759962|H,2.0273805155,-
 2.8768707665,0.6130798993|H,1.9185552375,1.7144053282,-1.0485201677|H,
 4.0511527218,0.5581683467,-1.077691676|H,-4.2175584121,4.1680623536,-0
 .6472063269|H,-6.4190716538,4.5209571864,0.6559810501|H,-6.766756345,3
 .9170727078,-0.9774323841|H,-7.4648067101,1.8259656474,-0.0548092037|H
 ,-7.1144162044,2.428797204,1.5782681299|H,-5.4034048918,0.6111944439,0
 .9165524928|H,-3.4893729805,-0.2298795237,0.816777708|H,-2.1777892312,
 3.5449981036,-0.8516838706|H,0.0557398246,2.6068716504,-0.9825541626||
 Version=EM64W-G09RevD.01|State=1-A|HF=-948.7938267|RMSD=5.042e-009|RMS
 F=1.313e-004|Dipole=0.3593046,0.7766664,-0.3616841|Quadrupole=116.5899
 17,-27.3679076,-89.2220094,-90.1946698,-11.5957024,-5.1248551|PG=C01 [
 X(C16H18N6)]||@


 THE MOST INCOMPREHENSIBLE THING ABOUT THE WORLD
 IS THAT IT IS COMPREHENSIBLE. -- A. EINSTEIN
 Job cpu time:       0 days  0 hours 23 minutes 46.0 seconds.
 File lengths (MBytes):  RWF=    220 Int=      0 D2E=      0 Chk=     30 Scr=      1
 Normal termination of Gaussian 09 at Mon Aug 27 20:49:16 2018.
