 Entering Link 1 = C:\G09W\l1.exe PID=      6096.
  
 Copyright (c) 1988,1990,1992,1993,1995,1998,2003,2009,2013,
            Gaussian, Inc.  All Rights Reserved.
  
 This is part of the Gaussian(R) 09 program.  It is based on
 the Gaussian(R) 03 system (copyright 2003, Gaussian, Inc.),
 the Gaussian(R) 98 system (copyright 1998, Gaussian, Inc.),
 the Gaussian(R) 94 system (copyright 1995, Gaussian, Inc.),
 the Gaussian 92(TM) system (copyright 1992, Gaussian, Inc.),
 the Gaussian 90(TM) system (copyright 1990, Gaussian, Inc.),
 the Gaussian 88(TM) system (copyright 1988, Gaussian, Inc.),
 the Gaussian 86(TM) system (copyright 1986, Carnegie Mellon
 University), and the Gaussian 82(TM) system (copyright 1983,
 Carnegie Mellon University). Gaussian is a federally registered
 trademark of Gaussian, Inc.
  
 This software contains proprietary and confidential information,
 including trade secrets, belonging to Gaussian, Inc.
  
 This software is provided under written license and may be
 used, copied, transmitted, or stored only in accord with that
 written license.
  
 The following legend is applicable only to US Government
 contracts under FAR:
  
                    RESTRICTED RIGHTS LEGEND
  
 Use, reproduction and disclosure by the US Government is
 subject to restrictions as set forth in subparagraphs (a)
 and (c) of the Commercial Computer Software - Restricted
 Rights clause in FAR 52.227-19.
  
 Gaussian, Inc.
 340 Quinnipiac St., Bldg. 40, Wallingford CT 06492
  
  
 ---------------------------------------------------------------
 Warning -- This program may not be used in any manner that
 competes with the business of Gaussian, Inc. or will provide
 assistance to any competitor of Gaussian, Inc.  The licensee
 of this program is prohibited from giving any competitor of
 Gaussian, Inc. access to this program.  By using this program,
 the user acknowledges that Gaussian, Inc. is engaged in the
 business of creating and licensing software in the field of
 computational chemistry and represents and warrants to the
 licensee that it is not a competitor of Gaussian, Inc. and that
 it will not use this program in any manner prohibited above.
 ---------------------------------------------------------------
  

 Cite this work as:
 Gaussian 09, Revision D.01,
 M. J. Frisch, G. W. Trucks, H. B. Schlegel, G. E. Scuseria, 
 M. A. Robb, J. R. Cheeseman, G. Scalmani, V. Barone, B. Mennucci, 
 G. A. Petersson, H. Nakatsuji, M. Caricato, X. Li, H. P. Hratchian, 
 A. F. Izmaylov, J. Bloino, G. Zheng, J. L. Sonnenberg, M. Hada, 
 M. Ehara, K. Toyota, R. Fukuda, J. Hasegawa, M. Ishida, T. Nakajima, 
 Y. Honda, O. Kitao, H. Nakai, T. Vreven, J. A. Montgomery, Jr., 
 J. E. Peralta, F. Ogliaro, M. Bearpark, J. J. Heyd, E. Brothers, 
 K. N. Kudin, V. N. Staroverov, T. Keith, R. Kobayashi, J. Normand, 
 K. Raghavachari, A. Rendell, J. C. Burant, S. S. Iyengar, J. Tomasi, 
 M. Cossi, N. Rega, J. M. Millam, M. Klene, J. E. Knox, J. B. Cross, 
 V. Bakken, C. Adamo, J. Jaramillo, R. Gomperts, R. E. Stratmann, 
 O. Yazyev, A. J. Austin, R. Cammi, C. Pomelli, J. W. Ochterski, 
 R. L. Martin, K. Morokuma, V. G. Zakrzewski, G. A. Voth, 
 P. Salvador, J. J. Dannenberg, S. Dapprich, A. D. Daniels, 
 O. Farkas, J. B. Foresman, J. V. Ortiz, J. Cioslowski, 
 and D. J. Fox, Gaussian, Inc., Wallingford CT, 2013.
 
 ******************************************
 Gaussian 09:  EM64W-G09RevD.01 13-Apr-2013
                22-Aug-2018 
 ******************************************
 %Chk=Anth_390.chk
 %Mem=64GB
 %NProcShared=20
 Will use up to   20 processors via shared memory.
 -------------------------------------
 # RB3LYP/6-311++G** Opt Test prop=EFG
 -------------------------------------
 1/14=-1,18=20,19=15,26=3,38=1/1,3;
 2/9=110,12=2,17=6,18=5,40=1/2;
 3/5=4,6=6,7=1111,11=2,16=1,25=1,30=1,71=1,74=-5,116=1/1,2,3;
 4//1;
 5/5=2,38=5/2;
 6/7=2,8=2,9=2,10=2,14=1,28=1/1,2;
 7//1,2,3,16;
 1/14=-1,18=20,19=15,26=3/3(2);
 2/9=110/2;
 99//99;
 2/9=110/2;
 3/5=4,6=6,7=1111,11=2,16=1,25=1,30=1,71=1,74=-5,116=1/1,2,3;
 4/5=5,16=3,69=1/1;
 5/5=2,38=5/2;
 7//1,2,3,16;
 1/14=-1,18=20,19=15,26=3/3(-5);
 2/9=110/2;
 6/7=2,8=2,9=2,10=2,14=1,19=2,28=1/1,2;
 99/9=1/99;
 --------
 C13N2H21
 --------
 Symbolic Z-matrix:
 Charge =  1 Multiplicity = 1
 C                     0.96739  -2.14903   1.35966 
 C                     1.99125  -2.35394   0.23145 
 C                     1.33482  -2.00812  -1.11489 
 C                     0.12658  -2.92806  -1.35338 
 C                    -0.89502  -2.72228  -0.22336 
 C                    -0.24429  -3.06747   1.12695 
 C                     0.50339  -0.68205   1.37731 
 C                    -1.36157  -1.25604  -0.2082 
 C                    -0.16327  -0.31458   0.03504 
 C                     0.86647  -0.54327  -1.09394 
 C                    -0.61451   1.13276   0.04418 
 N                    -1.48951   1.56974   0.90571 
 C                    -1.80752   3.03927   0.75373 
 C                    -0.88457   3.38937  -0.42718 
 N                    -0.25038   2.08368  -0.71337 
 H                     1.44207  -2.40142   2.34049 
 H                     2.8851   -1.70898   0.4013 
 H                     2.35141  -3.40939   0.22448 
 H                     2.07841  -2.15151  -1.93802 
 H                     0.45449  -3.99346  -1.38748 
 H                    -0.34088  -2.70242  -2.34049 
 H                    -1.77487  -3.39154  -0.39366 
 H                    -0.98381  -2.94519   1.95277 
 H                     0.07584  -4.13576   1.13719 
 H                    -0.20494  -0.5374    2.2256 
 H                     1.37277  -0.00989   1.56747 
 H                    -2.13311  -1.13164   0.58642 
 H                    -1.85449  -1.00297  -1.17606 
 H                     1.74964   0.12332  -0.95197 
 H                     0.41892  -0.28523  -2.0827 
 H                    -1.93226   0.98683   1.62718 
 H                    -1.54166   3.59446   1.68225 
 H                    -2.8851    3.18044   0.50873 
 H                    -1.4507    3.74006  -1.31983 
 H                    -0.10548   4.13576  -0.15075 
 H                     0.45227   1.95565  -1.4802 
 

 GradGradGradGradGradGradGradGradGradGradGradGradGradGradGradGradGradGrad
 Berny optimization.
 Initialization pass.
                           ----------------------------
                           !    Initial Parameters    !
                           ! (Angstroms and Degrees)  !
 --------------------------                            --------------------------
 ! Name  Definition              Value          Derivative Info.                !
 --------------------------------------------------------------------------------
 ! R1    R(1,2)                  1.5372         estimate D2E/DX2                !
 ! R2    R(1,6)                  1.5381         estimate D2E/DX2                !
 ! R3    R(1,7)                  1.5387         estimate D2E/DX2                !
 ! R4    R(1,16)                 1.1185         estimate D2E/DX2                !
 ! R5    R(2,3)                  1.5372         estimate D2E/DX2                !
 ! R6    R(2,17)                 1.1153         estimate D2E/DX2                !
 ! R7    R(2,18)                 1.1152         estimate D2E/DX2                !
 ! R8    R(3,4)                  1.5372         estimate D2E/DX2                !
 ! R9    R(3,10)                 1.538          estimate D2E/DX2                !
 ! R10   R(3,19)                 1.1185         estimate D2E/DX2                !
 ! R11   R(4,5)                  1.5372         estimate D2E/DX2                !
 ! R12   R(4,20)                 1.1152         estimate D2E/DX2                !
 ! R13   R(4,21)                 1.1153         estimate D2E/DX2                !
 ! R14   R(5,6)                  1.5382         estimate D2E/DX2                !
 ! R15   R(5,8)                  1.5388         estimate D2E/DX2                !
 ! R16   R(5,22)                 1.1185         estimate D2E/DX2                !
 ! R17   R(6,23)                 1.1153         estimate D2E/DX2                !
 ! R18   R(6,24)                 1.1153         estimate D2E/DX2                !
 ! R19   R(7,9)                  1.5431         estimate D2E/DX2                !
 ! R20   R(7,25)                 1.1146         estimate D2E/DX2                !
 ! R21   R(7,26)                 1.1152         estimate D2E/DX2                !
 ! R22   R(8,9)                  1.5432         estimate D2E/DX2                !
 ! R23   R(8,27)                 1.1145         estimate D2E/DX2                !
 ! R24   R(8,28)                 1.1152         estimate D2E/DX2                !
 ! R25   R(9,10)                 1.5451         estimate D2E/DX2                !
 ! R26   R(9,11)                 1.5161         estimate D2E/DX2                !
 ! R27   R(10,29)                1.1156         estimate D2E/DX2                !
 ! R28   R(10,30)                1.1156         estimate D2E/DX2                !
 ! R29   R(11,12)                1.3034         estimate D2E/DX2                !
 ! R30   R(11,15)                1.2691         estimate D2E/DX2                !
 ! R31   R(12,13)                1.5112         estimate D2E/DX2                !
 ! R32   R(12,31)                1.0278         estimate D2E/DX2                !
 ! R33   R(13,14)                1.5391         estimate D2E/DX2                !
 ! R34   R(13,32)                1.114          estimate D2E/DX2                !
 ! R35   R(13,33)                1.1141         estimate D2E/DX2                !
 ! R36   R(14,15)                1.4795         estimate D2E/DX2                !
 ! R37   R(14,34)                1.1137         estimate D2E/DX2                !
 ! R38   R(14,35)                1.1138         estimate D2E/DX2                !
 ! R39   R(15,36)                1.0479         estimate D2E/DX2                !
 ! A1    A(2,1,6)              109.5145         estimate D2E/DX2                !
 ! A2    A(2,1,7)              109.6544         estimate D2E/DX2                !
 ! A3    A(2,1,16)             109.3203         estimate D2E/DX2                !
 ! A4    A(6,1,7)              109.4791         estimate D2E/DX2                !
 ! A5    A(6,1,16)             109.4049         estimate D2E/DX2                !
 ! A6    A(7,1,16)             109.4537         estimate D2E/DX2                !
 ! A7    A(1,2,3)              109.1704         estimate D2E/DX2                !
 ! A8    A(1,2,17)             110.1788         estimate D2E/DX2                !
 ! A9    A(1,2,18)             110.2327         estimate D2E/DX2                !
 ! A10   A(3,2,17)             110.2143         estimate D2E/DX2                !
 ! A11   A(3,2,18)             110.2022         estimate D2E/DX2                !
 ! A12   A(17,2,18)            106.8232         estimate D2E/DX2                !
 ! A13   A(2,3,4)              109.6873         estimate D2E/DX2                !
 ! A14   A(2,3,10)             109.4122         estimate D2E/DX2                !
 ! A15   A(2,3,19)             109.3787         estimate D2E/DX2                !
 ! A16   A(4,3,10)             109.4349         estimate D2E/DX2                !
 ! A17   A(4,3,19)             109.3683         estimate D2E/DX2                !
 ! A18   A(10,3,19)            109.546          estimate D2E/DX2                !
 ! A19   A(3,4,5)              109.1593         estimate D2E/DX2                !
 ! A20   A(3,4,20)             110.2029         estimate D2E/DX2                !
 ! A21   A(3,4,21)             110.2239         estimate D2E/DX2                !
 ! A22   A(5,4,20)             110.2284         estimate D2E/DX2                !
 ! A23   A(5,4,21)             110.1821         estimate D2E/DX2                !
 ! A24   A(20,4,21)            106.8255         estimate D2E/DX2                !
 ! A25   A(4,5,6)              109.5204         estimate D2E/DX2                !
 ! A26   A(4,5,8)              109.6517         estimate D2E/DX2                !
 ! A27   A(4,5,22)             109.3143         estimate D2E/DX2                !
 ! A28   A(6,5,8)              109.4793         estimate D2E/DX2                !
 ! A29   A(6,5,22)             109.4008         estimate D2E/DX2                !
 ! A30   A(8,5,22)             109.4603         estimate D2E/DX2                !
 ! A31   A(1,6,5)              109.3949         estimate D2E/DX2                !
 ! A32   A(1,6,23)             110.1732         estimate D2E/DX2                !
 ! A33   A(1,6,24)             110.1484         estimate D2E/DX2                !
 ! A34   A(5,6,23)             110.1759         estimate D2E/DX2                !
 ! A35   A(5,6,24)             110.1488         estimate D2E/DX2                !
 ! A36   A(23,6,24)            106.7719         estimate D2E/DX2                !
 ! A37   A(1,7,9)              110.3241         estimate D2E/DX2                !
 ! A38   A(1,7,25)             108.9113         estimate D2E/DX2                !
 ! A39   A(1,7,26)             109.9675         estimate D2E/DX2                !
 ! A40   A(9,7,25)             110.8901         estimate D2E/DX2                !
 ! A41   A(9,7,26)             109.973          estimate D2E/DX2                !
 ! A42   A(25,7,26)            106.7035         estimate D2E/DX2                !
 ! A43   A(5,8,9)              110.331          estimate D2E/DX2                !
 ! A44   A(5,8,27)             108.8611         estimate D2E/DX2                !
 ! A45   A(5,8,28)             109.9794         estimate D2E/DX2                !
 ! A46   A(9,8,27)             110.9207         estimate D2E/DX2                !
 ! A47   A(9,8,28)             109.9717         estimate D2E/DX2                !
 ! A48   A(27,8,28)            106.7051         estimate D2E/DX2                !
 ! A49   A(7,9,8)              109.1049         estimate D2E/DX2                !
 ! A50   A(7,9,10)             108.2052         estimate D2E/DX2                !
 ! A51   A(7,9,11)             110.5287         estimate D2E/DX2                !
 ! A52   A(8,9,10)             108.1825         estimate D2E/DX2                !
 ! A53   A(8,9,11)             110.6249         estimate D2E/DX2                !
 ! A54   A(10,9,11)            110.1252         estimate D2E/DX2                !
 ! A55   A(3,10,9)             110.7239         estimate D2E/DX2                !
 ! A56   A(3,10,29)            109.2542         estimate D2E/DX2                !
 ! A57   A(3,10,30)            109.293          estimate D2E/DX2                !
 ! A58   A(9,10,29)            110.2545         estimate D2E/DX2                !
 ! A59   A(9,10,30)            110.244          estimate D2E/DX2                !
 ! A60   A(29,10,30)           106.9883         estimate D2E/DX2                !
 ! A61   A(9,11,12)            121.5918         estimate D2E/DX2                !
 ! A62   A(9,11,15)            128.7774         estimate D2E/DX2                !
 ! A63   A(12,11,15)           109.6306         estimate D2E/DX2                !
 ! A64   A(11,12,13)           113.6294         estimate D2E/DX2                !
 ! A65   A(11,12,31)           124.2669         estimate D2E/DX2                !
 ! A66   A(13,12,31)           122.1037         estimate D2E/DX2                !
 ! A67   A(12,13,14)            99.9135         estimate D2E/DX2                !
 ! A68   A(12,13,32)           110.5231         estimate D2E/DX2                !
 ! A69   A(12,13,33)           110.4187         estimate D2E/DX2                !
 ! A70   A(14,13,32)           112.521          estimate D2E/DX2                !
 ! A71   A(14,13,33)           112.4863         estimate D2E/DX2                !
 ! A72   A(32,13,33)           110.5469         estimate D2E/DX2                !
 ! A73   A(13,14,15)           101.8127         estimate D2E/DX2                !
 ! A74   A(13,14,34)           112.4431         estimate D2E/DX2                !
 ! A75   A(13,14,35)           112.4245         estimate D2E/DX2                !
 ! A76   A(15,14,34)           109.9227         estimate D2E/DX2                !
 ! A77   A(15,14,35)           109.8519         estimate D2E/DX2                !
 ! A78   A(34,14,35)           110.0899         estimate D2E/DX2                !
 ! A79   A(11,15,14)           115.0111         estimate D2E/DX2                !
 ! A80   A(11,15,36)           122.5224         estimate D2E/DX2                !
 ! A81   A(14,15,36)           122.4651         estimate D2E/DX2                !
 ! D1    D(6,1,2,3)             60.066          estimate D2E/DX2                !
 ! D2    D(6,1,2,17)          -178.7687         estimate D2E/DX2                !
 ! D3    D(6,1,2,18)           -61.1182         estimate D2E/DX2                !
 ! D4    D(7,1,2,3)            -60.0829         estimate D2E/DX2                !
 ! D5    D(7,1,2,17)            61.0823         estimate D2E/DX2                !
 ! D6    D(7,1,2,18)           178.7329         estimate D2E/DX2                !
 ! D7    D(16,1,2,3)           179.9191         estimate D2E/DX2                !
 ! D8    D(16,1,2,17)          -58.9156         estimate D2E/DX2                !
 ! D9    D(16,1,2,18)           58.735          estimate D2E/DX2                !
 ! D10   D(2,1,6,5)            -60.0749         estimate D2E/DX2                !
 ! D11   D(2,1,6,23)           178.667          estimate D2E/DX2                !
 ! D12   D(2,1,6,24)            61.1339         estimate D2E/DX2                !
 ! D13   D(7,1,6,5)             60.1811         estimate D2E/DX2                !
 ! D14   D(7,1,6,23)           -61.077          estimate D2E/DX2                !
 ! D15   D(7,1,6,24)          -178.6101         estimate D2E/DX2                !
 ! D16   D(16,1,6,5)          -179.8761         estimate D2E/DX2                !
 ! D17   D(16,1,6,23)           58.8657         estimate D2E/DX2                !
 ! D18   D(16,1,6,24)          -58.6673         estimate D2E/DX2                !
 ! D19   D(2,1,7,9)             60.435          estimate D2E/DX2                !
 ! D20   D(2,1,7,25)          -177.6379         estimate D2E/DX2                !
 ! D21   D(2,1,7,26)           -61.04           estimate D2E/DX2                !
 ! D22   D(6,1,7,9)            -59.7355         estimate D2E/DX2                !
 ! D23   D(6,1,7,25)            62.1916         estimate D2E/DX2                !
 ! D24   D(6,1,7,26)           178.7895         estimate D2E/DX2                !
 ! D25   D(16,1,7,9)          -179.6485         estimate D2E/DX2                !
 ! D26   D(16,1,7,25)          -57.7213         estimate D2E/DX2                !
 ! D27   D(16,1,7,26)           58.8766         estimate D2E/DX2                !
 ! D28   D(1,2,3,4)            -60.3103         estimate D2E/DX2                !
 ! D29   D(1,2,3,10)            59.7415         estimate D2E/DX2                !
 ! D30   D(1,2,3,19)           179.7404         estimate D2E/DX2                !
 ! D31   D(17,2,3,4)           178.546          estimate D2E/DX2                !
 ! D32   D(17,2,3,10)          -61.4022         estimate D2E/DX2                !
 ! D33   D(17,2,3,19)           58.5967         estimate D2E/DX2                !
 ! D34   D(18,2,3,4)            60.8924         estimate D2E/DX2                !
 ! D35   D(18,2,3,10)         -179.0558         estimate D2E/DX2                !
 ! D36   D(18,2,3,19)          -59.0569         estimate D2E/DX2                !
 ! D37   D(2,3,4,5)             60.3124         estimate D2E/DX2                !
 ! D38   D(2,3,4,20)           -60.8784         estimate D2E/DX2                !
 ! D39   D(2,3,4,21)          -178.541          estimate D2E/DX2                !
 ! D40   D(10,3,4,5)           -59.7255         estimate D2E/DX2                !
 ! D41   D(10,3,4,20)          179.0838         estimate D2E/DX2                !
 ! D42   D(10,3,4,21)           61.4212         estimate D2E/DX2                !
 ! D43   D(19,3,4,5)          -179.732          estimate D2E/DX2                !
 ! D44   D(19,3,4,20)           59.0773         estimate D2E/DX2                !
 ! D45   D(19,3,4,21)          -58.5853         estimate D2E/DX2                !
 ! D46   D(2,3,10,9)           -60.1041         estimate D2E/DX2                !
 ! D47   D(2,3,10,29)           61.5122         estimate D2E/DX2                !
 ! D48   D(2,3,10,30)          178.2673         estimate D2E/DX2                !
 ! D49   D(4,3,10,9)            60.1022         estimate D2E/DX2                !
 ! D50   D(4,3,10,29)         -178.2815         estimate D2E/DX2                !
 ! D51   D(4,3,10,30)          -61.5264         estimate D2E/DX2                !
 ! D52   D(19,3,10,9)          179.9997         estimate D2E/DX2                !
 ! D53   D(19,3,10,29)         -58.3841         estimate D2E/DX2                !
 ! D54   D(19,3,10,30)          58.371          estimate D2E/DX2                !
 ! D55   D(3,4,5,6)            -60.0799         estimate D2E/DX2                !
 ! D56   D(3,4,5,8)             60.0713         estimate D2E/DX2                !
 ! D57   D(3,4,5,22)          -179.9279         estimate D2E/DX2                !
 ! D58   D(20,4,5,6)            61.0953         estimate D2E/DX2                !
 ! D59   D(20,4,5,8)          -178.7535         estimate D2E/DX2                !
 ! D60   D(20,4,5,22)          -58.7527         estimate D2E/DX2                !
 ! D61   D(21,4,5,6)           178.748          estimate D2E/DX2                !
 ! D62   D(21,4,5,8)           -61.1008         estimate D2E/DX2                !
 ! D63   D(21,4,5,22)           58.9            estimate D2E/DX2                !
 ! D64   D(4,5,6,1)             60.0873         estimate D2E/DX2                !
 ! D65   D(4,5,6,23)          -178.6562         estimate D2E/DX2                !
 ! D66   D(4,5,6,24)           -61.1212         estimate D2E/DX2                !
 ! D67   D(8,5,6,1)            -60.1691         estimate D2E/DX2                !
 ! D68   D(8,5,6,23)            61.0873         estimate D2E/DX2                !
 ! D69   D(8,5,6,24)           178.6223         estimate D2E/DX2                !
 ! D70   D(22,5,6,1)           179.8823         estimate D2E/DX2                !
 ! D71   D(22,5,6,23)          -58.8612         estimate D2E/DX2                !
 ! D72   D(22,5,6,24)           58.6737         estimate D2E/DX2                !
 ! D73   D(4,5,8,9)            -60.4618         estimate D2E/DX2                !
 ! D74   D(4,5,8,27)           177.6014         estimate D2E/DX2                !
 ! D75   D(4,5,8,28)            61.0238         estimate D2E/DX2                !
 ! D76   D(6,5,8,9)             59.7145         estimate D2E/DX2                !
 ! D77   D(6,5,8,27)           -62.2224         estimate D2E/DX2                !
 ! D78   D(6,5,8,28)          -178.7999         estimate D2E/DX2                !
 ! D79   D(22,5,8,9)           179.6266         estimate D2E/DX2                !
 ! D80   D(22,5,8,27)           57.6897         estimate D2E/DX2                !
 ! D81   D(22,5,8,28)          -58.8878         estimate D2E/DX2                !
 ! D82   D(1,7,9,8)             58.5012         estimate D2E/DX2                !
 ! D83   D(1,7,9,10)           -58.9861         estimate D2E/DX2                !
 ! D84   D(1,7,9,11)          -179.6444         estimate D2E/DX2                !
 ! D85   D(25,7,9,8)           -62.2495         estimate D2E/DX2                !
 ! D86   D(25,7,9,10)         -179.7369         estimate D2E/DX2                !
 ! D87   D(25,7,9,11)           59.6049         estimate D2E/DX2                !
 ! D88   D(26,7,9,8)           179.9729         estimate D2E/DX2                !
 ! D89   D(26,7,9,10)           62.4855         estimate D2E/DX2                !
 ! D90   D(26,7,9,11)          -58.1728         estimate D2E/DX2                !
 ! D91   D(5,8,9,7)            -58.4933         estimate D2E/DX2                !
 ! D92   D(5,8,9,10)            59.0084         estimate D2E/DX2                !
 ! D93   D(5,8,9,11)           179.7105         estimate D2E/DX2                !
 ! D94   D(27,8,9,7)            62.219          estimate D2E/DX2                !
 ! D95   D(27,8,9,10)          179.7207         estimate D2E/DX2                !
 ! D96   D(27,8,9,11)          -59.5772         estimate D2E/DX2                !
 ! D97   D(28,8,9,7)          -179.9835         estimate D2E/DX2                !
 ! D98   D(28,8,9,10)          -62.4818         estimate D2E/DX2                !
 ! D99   D(28,8,9,11)           58.2203         estimate D2E/DX2                !
 ! D100  D(7,9,10,3)            59.0401         estimate D2E/DX2                !
 ! D101  D(7,9,10,29)          -61.9858         estimate D2E/DX2                !
 ! D102  D(7,9,10,30)         -179.8923         estimate D2E/DX2                !
 ! D103  D(8,9,10,3)           -59.038          estimate D2E/DX2                !
 ! D104  D(8,9,10,29)          179.9361         estimate D2E/DX2                !
 ! D105  D(8,9,10,30)           62.0296         estimate D2E/DX2                !
 ! D106  D(11,9,10,3)          179.9492         estimate D2E/DX2                !
 ! D107  D(11,9,10,29)          58.9234         estimate D2E/DX2                !
 ! D108  D(11,9,10,30)         -58.9832         estimate D2E/DX2                !
 ! D109  D(7,9,11,12)          -60.8299         estimate D2E/DX2                !
 ! D110  D(7,9,11,15)          119.0099         estimate D2E/DX2                !
 ! D111  D(8,9,11,12)           60.1249         estimate D2E/DX2                !
 ! D112  D(8,9,11,15)         -120.0352         estimate D2E/DX2                !
 ! D113  D(10,9,11,12)         179.6639         estimate D2E/DX2                !
 ! D114  D(10,9,11,15)          -0.4962         estimate D2E/DX2                !
 ! D115  D(9,11,12,13)         179.9564         estimate D2E/DX2                !
 ! D116  D(9,11,12,31)          -0.0339         estimate D2E/DX2                !
 ! D117  D(15,11,12,13)          0.089          estimate D2E/DX2                !
 ! D118  D(15,11,12,31)       -179.9014         estimate D2E/DX2                !
 ! D119  D(9,11,15,14)        -179.5793         estimate D2E/DX2                !
 ! D120  D(9,11,15,36)          -0.0008         estimate D2E/DX2                !
 ! D121  D(12,11,15,14)          0.2758         estimate D2E/DX2                !
 ! D122  D(12,11,15,36)        179.8544         estimate D2E/DX2                !
 ! D123  D(11,12,13,14)         -0.3751         estimate D2E/DX2                !
 ! D124  D(11,12,13,32)       -119.0999         estimate D2E/DX2                !
 ! D125  D(11,12,13,33)        118.2681         estimate D2E/DX2                !
 ! D126  D(31,12,13,14)        179.6155         estimate D2E/DX2                !
 ! D127  D(31,12,13,32)         60.8907         estimate D2E/DX2                !
 ! D128  D(31,12,13,33)        -61.7413         estimate D2E/DX2                !
 ! D129  D(12,13,14,15)          0.4611         estimate D2E/DX2                !
 ! D130  D(12,13,14,34)        118.0444         estimate D2E/DX2                !
 ! D131  D(12,13,14,35)       -117.0309         estimate D2E/DX2                !
 ! D132  D(32,13,14,15)        117.7031         estimate D2E/DX2                !
 ! D133  D(32,13,14,34)       -124.7136         estimate D2E/DX2                !
 ! D134  D(32,13,14,35)          0.2111         estimate D2E/DX2                !
 ! D135  D(33,13,14,15)       -116.6459         estimate D2E/DX2                !
 ! D136  D(33,13,14,34)          0.9375         estimate D2E/DX2                !
 ! D137  D(33,13,14,35)        125.8621         estimate D2E/DX2                !
 ! D138  D(13,14,15,11)         -0.4961         estimate D2E/DX2                !
 ! D139  D(13,14,15,36)        179.9251         estimate D2E/DX2                !
 ! D140  D(34,14,15,11)       -119.8798         estimate D2E/DX2                !
 ! D141  D(34,14,15,36)         60.5414         estimate D2E/DX2                !
 ! D142  D(35,14,15,11)        118.8347         estimate D2E/DX2                !
 ! D143  D(35,14,15,36)        -60.744          estimate D2E/DX2                !
 --------------------------------------------------------------------------------
 Trust Radius=3.00D-01 FncErr=1.00D-07 GrdErr=1.00D-06
 Number of steps in this run=    216 maximum allowed number of steps=    216.
 GradGradGradGradGradGradGradGradGradGradGradGradGradGradGradGradGradGrad

                          Input orientation:                          
 ---------------------------------------------------------------------
 Center     Atomic      Atomic             Coordinates (Angstroms)
 Number     Number       Type             X           Y           Z
 ---------------------------------------------------------------------
      1          6           0        0.967393   -2.149029    1.359656
      2          6           0        1.991245   -2.353938    0.231452
      3          6           0        1.334816   -2.008119   -1.114885
      4          6           0        0.126578   -2.928058   -1.353380
      5          6           0       -0.895018   -2.722279   -0.223356
      6          6           0       -0.244288   -3.067472    1.126951
      7          6           0        0.503390   -0.682045    1.377308
      8          6           0       -1.361565   -1.256040   -0.208198
      9          6           0       -0.163272   -0.314583    0.035036
     10          6           0        0.866465   -0.543274   -1.093942
     11          6           0       -0.614512    1.132758    0.044179
     12          7           0       -1.489506    1.569739    0.905707
     13          6           0       -1.807516    3.039268    0.753733
     14          6           0       -0.884565    3.389368   -0.427182
     15          7           0       -0.250384    2.083678   -0.713374
     16          1           0        1.442067   -2.401419    2.340486
     17          1           0        2.885099   -1.708978    0.401302
     18          1           0        2.351410   -3.409386    0.224483
     19          1           0        2.078406   -2.151512   -1.938020
     20          1           0        0.454485   -3.993457   -1.387477
     21          1           0       -0.340881   -2.702418   -2.340486
     22          1           0       -1.774868   -3.391544   -0.393664
     23          1           0       -0.983806   -2.945189    1.952766
     24          1           0        0.075839   -4.135757    1.137189
     25          1           0       -0.204937   -0.537396    2.225598
     26          1           0        1.372768   -0.009886    1.567468
     27          1           0       -2.133109   -1.131638    0.586416
     28          1           0       -1.854485   -1.002972   -1.176063
     29          1           0        1.749638    0.123324   -0.951972
     30          1           0        0.418920   -0.285225   -2.082697
     31          1           0       -1.932264    0.986827    1.627176
     32          1           0       -1.541659    3.594463    1.682247
     33          1           0       -2.885099    3.180435    0.508734
     34          1           0       -1.450701    3.740058   -1.319826
     35          1           0       -0.105480    4.135757   -0.150754
     36          1           0        0.452270    1.955653   -1.480198
 ---------------------------------------------------------------------
                    Distance matrix (angstroms):
                    1          2          3          4          5
     1  C    0.000000
     2  C    1.537239   0.000000
     3  C    2.505635   1.537242   0.000000
     4  C    2.945237   2.513621   1.537207   0.000000
     5  C    2.510601   2.945002   2.505396   1.537191   0.000000
     6  C    1.538135   2.511704   2.939664   2.511776   1.538160
     7  C    1.538718   2.514344   2.942918   3.555730   2.946222
     8  C    2.946123   3.555279   2.942478   2.514290   1.538750
     9  C    2.529469   2.973128   2.536661   2.973544   2.529668
    10  C    2.934072   2.510041   1.538038   2.510366   2.934077
    11  C    3.873374   4.356844   3.874070   4.358051   3.874477
    12  N    4.480140   5.288241   4.986046   5.286339   4.477680
    13  C    5.914870   6.617404   6.232343   6.617373   5.914624
    14  C    6.107076   6.456752   5.876347   6.464528   6.115054
    15  N    4.867879   5.060636   4.406458   5.066479   4.873694
    16  H    1.118501   2.179880   3.479336   3.956325   3.483992
    17  H    2.188535   1.115257   2.188992   3.489198   3.963113
    18  H    2.189205   1.115230   2.188817   2.769694   3.348428
    19  H    3.479802   2.180638   1.118498   2.180472   3.479526
    20  H    3.348392   2.769582   2.188802   1.115240   2.189116
    21  H    3.963442   3.489286   2.189089   1.115262   2.188539
    22  H    3.483959   3.956135   3.479103   2.179764   1.118506
    23  H    2.189253   3.487611   3.957852   3.487671   2.189310
    24  H    2.188938   2.768396   3.344205   2.768401   2.188965
    25  H    2.172918   3.478456   3.961400   4.316741   3.353700
    26  H    2.187109   2.768038   3.345055   4.312780   3.963203
    27  H    3.353520   4.316285   3.960953   3.477947   2.172266
    28  H    3.963119   4.312290   3.344504   2.768033   2.187292
    29  H    3.334534   2.756029   2.177537   3.479423   3.952536
    30  H    3.952769   3.479521   2.178047   2.757160   3.335088
    31  H    4.279389   5.338790   5.211757   5.333748   4.272916
    32  H    6.275915   7.068924   6.891080   7.385210   6.629532
    33  H    6.630909   7.381389   6.882217   7.060549   6.272034
    34  H    6.907109   7.168699   6.390825   6.852204   6.578209
    35  H    6.552170   6.830701   6.383668   7.169215   6.903716
    36  H    5.017822   4.885772   4.077233   4.896202   5.027712
                    6          7          8          9         10
     6  C    0.000000
     7  C    2.512362   0.000000
     8  C    2.512413   2.514231   0.000000
     9  C    2.962641   1.543101   1.543182   0.000000
    10  C    3.540863   2.501631   2.501339   1.545073   0.000000
    11  C    4.353320   2.514050   2.515579   1.516080   2.509521
    12  N    4.806583   3.043776   3.040095   2.463257   3.743530
    13  C    6.314685   4.424625   4.424235   3.803732   4.837219
    14  C    6.672036   4.664655   4.674965   3.801731   4.356185
    15  N    5.470026   3.548007   3.555790   2.513834   2.879767
    16  H    2.181762   2.182905   3.958287   3.499585   3.947064
    17  H    3.487855   2.771230   4.314023   3.372099   2.769387
    18  H    2.769296   3.490354   4.313965   3.992157   3.486819
    19  H    3.953219   3.953658   3.953170   3.506049   2.183506
    20  H    2.769130   4.314148   3.490299   3.992403   3.487069
    21  H    3.487938   4.314707   2.771364   3.372893   2.770101
    22  H    2.181735   3.958306   2.183024   3.499816   3.947109
    23  H    1.115262   2.768524   2.768699   3.357239   4.298270
    24  H    1.115266   3.488350   3.488405   3.984129   4.302205
    25  H    2.758597   1.114561   2.788835   2.202259   3.488163
    26  H    3.486798   1.115247   3.490339   2.191029   2.761150
    27  H    2.758129   2.789045   1.114526   2.202693   3.488154
    28  H    3.486943   3.490311   1.115247   2.191082   2.760731
    29  H    4.298702   2.761756   3.483594   2.196627   1.115573
    30  H    4.299138   3.483710   2.761586   2.196498   1.115582
    31  H    4.420048   2.963103   2.953768   2.712547   4.192681
    32  H    6.809765   4.750130   5.208992   4.460257   5.534181
    33  H    6.811198   5.211049   4.745256   4.455096   5.523478
    34  H    7.333799   5.536063   5.119048   4.464666   4.875163
    35  H    7.316987   5.090866   5.536472   4.454591   4.871100
    36  H    5.702123   3.889139   3.901660   2.797999   2.562301
                   11         12         13         14         15
    11  C    0.000000
    12  N    1.303379   0.000000
    13  C    2.358285   1.511205   0.000000
    14  C    2.321077   2.335294   1.539145   0.000000
    15  N    1.269143   2.102613   2.343121   1.479499   0.000000
    16  H    4.689664   5.140312   6.532890   6.826889   5.683885
    17  H    4.522198   5.490135   6.685109   6.394520   5.045592
    18  H    5.427732   6.325218   7.691678   7.557728   6.150013
    19  H    4.686934   5.887656   7.020692   6.462444   4.985966
    20  H    5.428671   6.323523   7.691596   7.564478   6.154903
    21  H    4.524387   5.487115   6.685220   6.408290   5.055927
    22  H    4.691209   5.136548   6.532452   6.839191   5.692479
    23  H    4.517603   4.662257   6.158726   6.767615   5.738965
    24  H    5.424805   5.920859   7.427991   7.745782   6.497105
    25  H    2.777725   2.798615   4.186546   4.787339   3.938229
    26  H    2.752331   3.335529   4.480370   4.541928   3.495693
    27  H    2.779865   2.795283   4.186940   4.798514   3.946184
    28  H    2.754608   3.329537   4.479511   4.560068   3.509221
    29  H    2.756897   4.004390   4.905660   4.228649   2.810695
    30  H    2.757219   4.001692   4.904550   4.235851   2.816863
    31  H    2.064860   1.027783   2.234050   3.330205   3.083825
    32  H    3.098848   2.169157   1.114029   2.218902   3.112694
    33  H    3.092630   2.167858   1.114064   2.218497   3.104537
    34  H    3.059042   3.108824   2.217672   1.113691   2.133574
    35  H    3.052067   3.100981   2.217501   1.113769   2.132737
    36  H    2.034430   3.100317   3.357276   2.225199   1.047918
                   16         17         18         19         20
    16  H    0.000000
    17  H    2.514409   0.000000
    18  H    2.514035   1.790943   0.000000
    19  H    4.332781   2.513766   2.516584   0.000000
    20  H    4.172243   3.785031   2.556928   2.516541   0.000000
    21  H    5.018068   4.348709   3.785142   2.513648   1.790982
    22  H    4.336426   5.017797   4.172361   4.332486   2.513957
    23  H    2.516122   4.347837   3.784984   5.014507   3.784808
    24  H    2.514444   3.784538   2.557122   4.171860   2.556865
    25  H    2.490061   3.774782   4.334478   5.015450   5.043164
    26  H    2.514317   2.556169   3.783907   4.168085   5.044183
    27  H    4.179831   5.054701   5.042821   5.014956   4.333809
    28  H    5.018867   5.044817   5.043997   4.167416   3.784051
    29  H    4.160433   2.545182   3.771766   2.501051   4.337623
    30  H    5.008957   3.778804   4.337969   2.501570   3.773007
    31  H    4.834784   5.654831   6.296356   6.216532   6.291894
    32  H    6.729525   7.025916   8.144628   7.695936   8.425220
    33  H    7.296354   7.563933   8.421851   7.684572   8.137147
    34  H    7.712570   7.173105   8.243512   6.895459   7.965021
    35  H    7.164904   6.588570   7.943947   6.891548   8.241794
    36  H    5.878895   4.784163   5.941070   4.441027   5.949833
                   21         22         23         24         25
    21  H    0.000000
    22  H    2.514225   0.000000
    23  H    4.347908   2.516097   0.000000
    24  H    3.784487   2.514454   1.790381   0.000000
    25  H    5.055188   4.179878   2.545298   3.769837   0.000000
    26  H    5.045634   5.018891   3.783900   4.346260   1.789009
    27  H    3.774412   2.489190   2.544951   3.769288   2.599594
    28  H    2.556364   2.514709   3.784159   4.346450   3.809077
    29  H    3.779293   5.008807   5.032394   5.030504   3.788650
    30  H    2.546875   4.161100   5.032694   5.031100   4.360527
    31  H    5.646713   4.824801   4.057873   5.523896   2.380131
    32  H    7.568022   7.291645   6.568975   7.916419   4.376564
    33  H    7.014204   6.725908   6.574452   7.917624   4.894196
    34  H    6.616566   7.198792   7.457907   8.390215   5.693731
    35  H    7.184078   7.714021   7.438820   8.373149   5.243596
    36  H    4.802792   5.893489   6.153520   6.640609   4.514437
                   26         27         28         29         30
    26  H    0.000000
    27  H    3.809457   0.000000
    28  H    4.350672   1.788999   0.000000
    29  H    2.550952   4.360882   3.782653   0.000000
    30  H    3.782769   3.788592   2.550591   1.793394   0.000000
    31  H    3.452570   2.368842   3.438531   4.577559   4.572673
    32  H    4.636636   4.887401   5.422564   5.460820   5.750709
    33  H    5.424804   4.377842   4.626186   5.741113   5.444525
    34  H    5.510946   5.275686   4.762357   4.843372   4.503372
    35  H    4.724813   5.692113   5.524202   4.492553   4.853090
    36  H    3.741514   4.526195   3.763918   2.306429   2.320701
                   31         32         33         34         35
    31  H    0.000000
    32  H    2.637304   0.000000
    33  H    2.640213   1.831224   0.000000
    34  H    4.061650   3.006977   2.390462   0.000000
    35  H    4.051411   2.390712   3.012283   1.825630   0.000000
    36  H    4.034898   4.081974   4.073570   2.613641   2.613687
                   36
    36  H    0.000000
 Stoichiometry    C13H21N2(1+)
 Framework group  C1[X(C13H21N2)]
 Deg. of freedom   102
 Full point group                 C1      NOp   1
 Largest Abelian subgroup         C1      NOp   1
 Largest concise Abelian subgroup C1      NOp   1
                         Standard orientation:                         
 ---------------------------------------------------------------------
 Center     Atomic      Atomic             Coordinates (Angstroms)
 Number     Number       Type             X           Y           Z
 ---------------------------------------------------------------------
      1          6           0        1.937823   -0.719419    1.263069
      2          6           0        2.478915    0.719399    1.251839
      3          6           0        1.979194    1.436788   -0.012576
      4          6           0        2.482952    0.695840   -1.261668
      5          6           0        1.941690   -0.742837   -1.247419
      6          6           0        2.438945   -1.466567    0.015470
      7          6           0        0.399318   -0.693786    1.262343
      8          6           0        0.403163   -0.716972   -1.251778
      9          6           0       -0.124249    0.019018   -0.002152
     10          6           0        0.441287    1.456814   -0.014887
     11          6           0       -1.639910    0.054609   -0.003318
     12          7           0       -2.348581   -1.039271   -0.000296
     13          6           0       -3.839890   -0.794855   -0.001064
     14          6           0       -3.856170    0.744194    0.004554
     15          7           0       -2.411323    1.062401   -0.004325
     16          1           0        2.301207   -1.244276    2.181503
     17          1           0        2.140228    1.264911    2.163708
     18          1           0        3.593874    0.712351    1.275414
     19          1           0        2.367109    2.485822   -0.021908
     20          1           0        3.597991    0.688157   -1.281395
     21          1           0        2.147380    1.224066   -2.184803
     22          1           0        2.307838   -1.284854   -2.154728
     23          1           0        2.072286   -2.519793    0.024764
     24          1           0        3.553214   -1.513678    0.017634
     25          1           0        0.020566   -1.740746    1.313979
     26          1           0        0.026674   -0.172712    2.175248
     27          1           0        0.025290   -1.764943   -1.285498
     28          1           0        0.033137   -0.212903   -2.175233
     29          1           0        0.079405    2.022065    0.876199
     30          1           0        0.081166    2.005283   -0.917116
     31          1           0       -1.950365   -1.986770    0.002520
     32          1           0       -4.307427   -1.229856    0.911758
     33          1           0       -4.303368   -1.222520   -0.919447
     34          1           0       -4.343578    1.167546   -0.902923
     35          1           0       -4.329560    1.160728    0.922641
     36          1           0       -2.052134    2.046838   -0.004451
 ---------------------------------------------------------------------
 Rotational constants (GHZ):      1.3937174      0.4159336      0.3979746
 Standard basis: 6-311++G(d,p) (5D, 7F)
 There are   492 symmetry adapted cartesian basis functions of A   symmetry.
 There are   477 symmetry adapted basis functions of A   symmetry.
   477 basis functions,   729 primitive gaussians,   492 cartesian basis functions
    56 alpha electrons       56 beta electrons
       nuclear repulsion energy      1106.5961832513 Hartrees.
 NAtoms=   36 NActive=   36 NUniq=   36 SFac= 1.00D+00 NAtFMM=   60 NAOKFM=F Big=F
 Integral buffers will be    131072 words long.
 Raffenetti 2 integral format.
 Two-electron integral symmetry is turned on.
 One-electron integrals computed using PRISM.
 NBasis=   477 RedAO= T EigKep=  2.77D-06  NBF=   477
 NBsUse=   476 1.00D-06 EigRej=  2.15D-07 NBFU=   476
 ExpMin= 3.60D-02 ExpMax= 6.29D+03 ExpMxC= 9.49D+02 IAcc=3 IRadAn=         5 AccDes= 0.00D+00
 Harris functional with IExCor=  402 and IRadAn=       5 diagonalized for initial guess.
 HarFok:  IExCor=  402 AccDes= 0.00D+00 IRadAn=         5 IDoV= 1 UseB2=F ITyADJ=14
 ICtDFT=  3500011 ScaDFX=  1.000000  1.000000  1.000000  1.000000
 FoFCou: FMM=F IPFlag=           0 FMFlag=      100000 FMFlg1=           0
         NFxFlg=           0 DoJE=T BraDBF=F KetDBF=T FulRan=T
         wScrn=  0.000000 ICntrl=     500 IOpCl=  0 I1Cent=   200000004 NGrid=           0
         NMat0=    1 NMatS0=      1 NMatT0=    0 NMatD0=    1 NMtDS0=    0 NMtDT0=    0
 Petite list used in FoFCou.
 Keep R1 ints in memory in canonical form, NReq=6559068616.
 Requested convergence on RMS density matrix=1.00D-08 within 128 cycles.
 Requested convergence on MAX density matrix=1.00D-06.
 Requested convergence on             energy=1.00D-06.
 No special actions if energy rises.
 SCF Done:  E(RB3LYP) =  -617.495655327     A.U. after   12 cycles
            NFock= 12  Conv=0.88D-08     -V/T= 2.0053

 **********************************************************************

            Population analysis using the SCF density.

 **********************************************************************

 Orbital symmetries:
       Occupied  (A) (A) (A) (A) (A) (A) (A) (A) (A) (A) (A) (A)
                 (A) (A) (A) (A) (A) (A) (A) (A) (A) (A) (A) (A)
                 (A) (A) (A) (A) (A) (A) (A) (A) (A) (A) (A) (A)
                 (A) (A) (A) (A) (A) (A) (A) (A) (A) (A) (A) (A)
                 (A) (A) (A) (A) (A) (A) (A) (A)
       Virtual   (A) (A) (A) (A) (A) (A) (A) (A) (A) (A) (A) (A)
                 (A) (A) (A) (A) (A) (A) (A) (A) (A) (A) (A) (A)
                 (A) (A) (A) (A) (A) (A) (A) (A) (A) (A) (A) (A)
                 (A) (A) (A) (A) (A) (A) (A) (A) (A) (A) (A) (A)
                 (A) (A) (A) (A) (A) (A) (A) (A) (A) (A) (A) (A)
                 (A) (A) (A) (A) (A) (A) (A) (A) (A) (A) (A) (A)
                 (A) (A) (A) (A) (A) (A) (A) (A) (A) (A) (A) (A)
                 (A) (A) (A) (A) (A) (A) (A) (A) (A) (A) (A) (A)
                 (A) (A) (A) (A) (A) (A) (A) (A) (A) (A) (A) (A)
                 (A) (A) (A) (A) (A) (A) (A) (A) (A) (A) (A) (A)
                 (A) (A) (A) (A) (A) (A) (A) (A) (A) (A) (A) (A)
                 (A) (A) (A) (A) (A) (A) (A) (A) (A) (A) (A) (A)
                 (A) (A) (A) (A) (A) (A) (A) (A) (A) (A) (A) (A)
                 (A) (A) (A) (A) (A) (A) (A) (A) (A) (A) (A) (A)
                 (A) (A) (A) (A) (A) (A) (A) (A) (A) (A) (A) (A)
                 (A) (A) (A) (A) (A) (A) (A) (A) (A) (A) (A) (A)
                 (A) (A) (A) (A) (A) (A) (A) (A) (A) (A) (A) (A)
                 (A) (A) (A) (A) (A) (A) (A) (A) (A) (A) (A) (A)
                 (A) (A) (A) (A) (A) (A) (A) (A) (A) (A) (A) (A)
                 (A) (A) (A) (A) (A) (A) (A) (A) (A) (A) (A) (A)
                 (A) (A) (A) (A) (A) (A) (A) (A) (A) (A) (A) (A)
                 (A) (A) (A) (A) (A) (A) (A) (A) (A) (A) (A) (A)
                 (A) (A) (A) (A) (A) (A) (A) (A) (A) (A) (A) (A)
                 (A) (A) (A) (A) (A) (A) (A) (A) (A) (A) (A) (A)
                 (A) (A) (A) (A) (A) (A) (A) (A) (A) (A) (A) (A)
                 (A) (A) (A) (A) (A) (A) (A) (A) (A) (A) (A) (A)
                 (A) (A) (A) (A) (A) (A) (A) (A) (A) (A) (A) (A)
                 (A) (A) (A) (A) (A) (A) (A) (A) (A) (A) (A) (A)
                 (A) (A) (A) (A) (A) (A) (A) (A) (A) (A) (A) (A)
                 (A) (A) (A) (A) (A) (A) (A) (A) (A) (A) (A) (A)
                 (A) (A) (A) (A) (A) (A) (A) (A) (A) (A) (A) (A)
                 (A) (A) (A) (A) (A) (A) (A) (A) (A) (A) (A) (A)
                 (A) (A) (A) (A) (A) (A) (A) (A) (A) (A) (A) (A)
                 (A) (A) (A) (A) (A) (A) (A) (A) (A) (A) (A) (A)
                 (A) (A) (A) (A) (A) (A) (A) (A) (A) (A) (A) (A)
 The electronic state is 1-A.
 Alpha  occ. eigenvalues --  -14.53242 -14.52126 -10.44047 -10.38953 -10.38881
 Alpha  occ. eigenvalues --  -10.34952 -10.30837 -10.30812 -10.30809 -10.29183
 Alpha  occ. eigenvalues --  -10.29145 -10.29142 -10.27676 -10.27628 -10.27625
 Alpha  occ. eigenvalues --   -1.21265  -1.07190  -1.01243  -0.95653  -0.90379
 Alpha  occ. eigenvalues --   -0.89410  -0.89359  -0.81856  -0.81431  -0.79327
 Alpha  occ. eigenvalues --   -0.78819  -0.76037  -0.70711  -0.70414  -0.68194
 Alpha  occ. eigenvalues --   -0.67348  -0.66895  -0.64106  -0.60950  -0.59084
 Alpha  occ. eigenvalues --   -0.58623  -0.57999  -0.57050  -0.56904  -0.56345
 Alpha  occ. eigenvalues --   -0.55776  -0.53553  -0.53348  -0.52852  -0.52450
 Alpha  occ. eigenvalues --   -0.51523  -0.51504  -0.46117  -0.46066  -0.45267
 Alpha  occ. eigenvalues --   -0.45100  -0.45018  -0.42355  -0.42318  -0.40377
 Alpha  occ. eigenvalues --   -0.40364
 Alpha virt. eigenvalues --   -0.16667  -0.14691  -0.12066  -0.11656  -0.10754
 Alpha virt. eigenvalues --   -0.10239  -0.09424  -0.08645  -0.08190  -0.07923
 Alpha virt. eigenvalues --   -0.07214  -0.07079  -0.05955  -0.05679  -0.05517
 Alpha virt. eigenvalues --   -0.05019  -0.04451  -0.03463  -0.03433  -0.02839
 Alpha virt. eigenvalues --   -0.02461  -0.02392  -0.02241  -0.02044  -0.01517
 Alpha virt. eigenvalues --   -0.00875  -0.00460  -0.00263   0.00089   0.00532
 Alpha virt. eigenvalues --    0.00779   0.00948   0.01403   0.01588   0.01689
 Alpha virt. eigenvalues --    0.01945   0.02404   0.02451   0.02527   0.02856
 Alpha virt. eigenvalues --    0.03046   0.03311   0.03781   0.04029   0.04375
 Alpha virt. eigenvalues --    0.04520   0.05124   0.05469   0.05730   0.06169
 Alpha virt. eigenvalues --    0.06633   0.06747   0.06771   0.06944   0.07100
 Alpha virt. eigenvalues --    0.07744   0.07871   0.08091   0.08228   0.08603
 Alpha virt. eigenvalues --    0.08682   0.09151   0.09221   0.09435   0.09798
 Alpha virt. eigenvalues --    0.09896   0.10142   0.10208   0.10648   0.10774
 Alpha virt. eigenvalues --    0.11366   0.11472   0.11622   0.12184   0.12380
 Alpha virt. eigenvalues --    0.12482   0.13351   0.13850   0.14115   0.14570
 Alpha virt. eigenvalues --    0.14791   0.15475   0.15783   0.16084   0.16154
 Alpha virt. eigenvalues --    0.16512   0.16820   0.17323   0.18060   0.18151
 Alpha virt. eigenvalues --    0.18843   0.18894   0.19165   0.19640   0.20116
 Alpha virt. eigenvalues --    0.20451   0.21187   0.21821   0.22702   0.22887
 Alpha virt. eigenvalues --    0.23796   0.23971   0.24281   0.24925   0.25271
 Alpha virt. eigenvalues --    0.25441   0.25793   0.26359   0.26612   0.27009
 Alpha virt. eigenvalues --    0.27034   0.27704   0.28146   0.28882   0.30931
 Alpha virt. eigenvalues --    0.31241   0.31266   0.32694   0.34953   0.35017
 Alpha virt. eigenvalues --    0.36776   0.37889   0.38240   0.38521   0.39279
 Alpha virt. eigenvalues --    0.40113   0.40424   0.41147   0.42765   0.43382
 Alpha virt. eigenvalues --    0.44276   0.47099   0.47357   0.48052   0.48651
 Alpha virt. eigenvalues --    0.48694   0.50541   0.50794   0.51167   0.51623
 Alpha virt. eigenvalues --    0.51909   0.52924   0.54290   0.54504   0.55636
 Alpha virt. eigenvalues --    0.55828   0.55846   0.56245   0.56881   0.57479
 Alpha virt. eigenvalues --    0.57613   0.58089   0.58321   0.58895   0.59209
 Alpha virt. eigenvalues --    0.60653   0.61581   0.61679   0.62097   0.62647
 Alpha virt. eigenvalues --    0.63321   0.63581   0.63902   0.64636   0.64693
 Alpha virt. eigenvalues --    0.65448   0.65697   0.66866   0.67070   0.67460
 Alpha virt. eigenvalues --    0.68255   0.69688   0.71419   0.71844   0.72343
 Alpha virt. eigenvalues --    0.75633   0.75924   0.77571   0.79362   0.79693
 Alpha virt. eigenvalues --    0.80317   0.80841   0.82561   0.83343   0.84868
 Alpha virt. eigenvalues --    0.86122   0.87679   0.88986   0.90297   0.91829
 Alpha virt. eigenvalues --    0.94099   0.95026   0.95853   0.96242   0.98459
 Alpha virt. eigenvalues --    0.98731   1.00989   1.03009   1.05532   1.06195
 Alpha virt. eigenvalues --    1.07089   1.07496   1.10068   1.10129   1.12664
 Alpha virt. eigenvalues --    1.13838   1.14645   1.18442   1.23446   1.25672
 Alpha virt. eigenvalues --    1.27398   1.30993   1.31676   1.31748   1.33938
 Alpha virt. eigenvalues --    1.35174   1.36052   1.37648   1.38824   1.39883
 Alpha virt. eigenvalues --    1.40983   1.41265   1.41446   1.41760   1.41952
 Alpha virt. eigenvalues --    1.43381   1.45308   1.45539   1.47139   1.47572
 Alpha virt. eigenvalues --    1.48154   1.48212   1.48517   1.49492   1.49520
 Alpha virt. eigenvalues --    1.49820   1.50916   1.51299   1.52392   1.52960
 Alpha virt. eigenvalues --    1.54286   1.55629   1.56500   1.56755   1.58788
 Alpha virt. eigenvalues --    1.60655   1.62076   1.62120   1.63069   1.63556
 Alpha virt. eigenvalues --    1.63695   1.64028   1.65412   1.66245   1.67912
 Alpha virt. eigenvalues --    1.68010   1.69347   1.69644   1.70633   1.72383
 Alpha virt. eigenvalues --    1.72971   1.73052   1.74008   1.74060   1.74775
 Alpha virt. eigenvalues --    1.76061   1.77695   1.77941   1.78169   1.81136
 Alpha virt. eigenvalues --    1.82122   1.82729   1.84331   1.84755   1.86403
 Alpha virt. eigenvalues --    1.88726   1.88917   1.89596   1.92042   1.92756
 Alpha virt. eigenvalues --    1.93376   1.95015   1.95625   1.97543   1.98751
 Alpha virt. eigenvalues --    2.00067   2.04155   2.04996   2.05755   2.07609
 Alpha virt. eigenvalues --    2.08990   2.10068   2.11797   2.14500   2.16011
 Alpha virt. eigenvalues --    2.17183   2.17397   2.17777   2.18995   2.19084
 Alpha virt. eigenvalues --    2.21063   2.22501   2.23117   2.23484   2.25014
 Alpha virt. eigenvalues --    2.26251   2.27459   2.27687   2.29103   2.29526
 Alpha virt. eigenvalues --    2.30590   2.34999   2.36564   2.38829   2.40222
 Alpha virt. eigenvalues --    2.41572   2.42235   2.42522   2.43136   2.44190
 Alpha virt. eigenvalues --    2.44684   2.46922   2.48020   2.49041   2.51147
 Alpha virt. eigenvalues --    2.51368   2.53313   2.53723   2.54682   2.54989
 Alpha virt. eigenvalues --    2.58717   2.60987   2.63237   2.63257   2.64926
 Alpha virt. eigenvalues --    2.65648   2.67472   2.71548   2.74667   2.75002
 Alpha virt. eigenvalues --    2.75558   2.77436   2.78412   2.78826   2.78924
 Alpha virt. eigenvalues --    2.79446   2.80829   2.80958   2.83290   2.84283
 Alpha virt. eigenvalues --    2.85020   2.86565   2.89253   2.90697   2.92582
 Alpha virt. eigenvalues --    2.95373   2.96344   2.97907   2.98235   2.99473
 Alpha virt. eigenvalues --    3.00734   3.04046   3.06049   3.07106   3.07384
 Alpha virt. eigenvalues --    3.09374   3.13684   3.19110   3.22366   3.25212
 Alpha virt. eigenvalues --    3.35395   3.36139   3.36403   3.39277   3.39584
 Alpha virt. eigenvalues --    3.40884   3.48820   3.54379   3.59747   3.61802
 Alpha virt. eigenvalues --    3.63318   3.64429   3.68713   3.70445   3.71448
 Alpha virt. eigenvalues --    3.72726   3.80655   3.82478   3.91368   3.91377
 Alpha virt. eigenvalues --    3.98109   4.01797   4.02452   4.04232   4.08585
 Alpha virt. eigenvalues --    4.18775   4.19072   4.20130   4.20501   4.20947
 Alpha virt. eigenvalues --    4.21139   4.53192   4.65510   4.72243   5.04217
 Alpha virt. eigenvalues --   23.63423  23.63992  23.68298  23.77742  23.78499
 Alpha virt. eigenvalues --   23.78960  23.80071  23.82852  23.86413  23.86648
 Alpha virt. eigenvalues --   23.87851  23.88350  23.89612  35.40232  35.59920
          Condensed to atoms (all electrons):
               1          2          3          4          5          6
     1  C    6.529975  -0.141735  -0.599251   0.156570  -0.128038  -0.153639
     2  C   -0.141735   6.179090  -0.217769   0.086545   0.152604   0.058757
     3  C   -0.599251  -0.217769   7.565725  -0.210532  -0.605808   0.197210
     4  C    0.156570   0.086545  -0.210532   6.185627  -0.136172   0.060114
     5  C   -0.128038   0.152604  -0.605808  -0.136172   6.531416  -0.154000
     6  C   -0.153639   0.058757   0.197210   0.060114  -0.154000   5.972015
     7  C   -0.680828  -0.046101   0.337308  -0.271291   0.482675  -0.007179
     8  C    0.489234  -0.271637   0.341803  -0.053535  -0.663960  -0.007525
     9  C   -0.416714   0.039020  -0.129180   0.037806  -0.428803   0.183894
    10  C    0.593031   0.104417  -1.082498   0.088574   0.600625  -0.254253
    11  C   -0.070092  -0.033553  -0.055076  -0.035083  -0.068699  -0.054248
    12  N    0.027557   0.009807  -0.050942   0.009705   0.028127   0.012194
    13  C    0.004282  -0.001305  -0.009740  -0.001704   0.004262   0.010203
    14  C   -0.010291   0.001402   0.022661   0.002257  -0.010555  -0.005671
    15  N   -0.019262   0.003341   0.055949   0.003945  -0.020162   0.003744
    16  H    0.356976  -0.055966   0.000308   0.016424   0.012362  -0.054045
    17  H   -0.067134   0.511612  -0.122227  -0.004862   0.026750  -0.010835
    18  H   -0.054246   0.460461  -0.053963  -0.010922  -0.000509  -0.002741
    19  H   -0.000567  -0.037906   0.325008  -0.039302  -0.000224   0.021992
    20  H   -0.000510  -0.011026  -0.053588   0.461222  -0.055424  -0.002974
    21  H    0.026581  -0.005381  -0.120652   0.512411  -0.066663  -0.010564
    22  H    0.012283   0.016547  -0.000567  -0.056102   0.357266  -0.053962
    23  H   -0.107239   0.005272   0.034471   0.005291  -0.107855   0.519949
    24  H   -0.052541   0.000911  -0.011744   0.001105  -0.052611   0.457448
    25  H   -0.014211   0.000129  -0.007549  -0.011426   0.009606  -0.003029
    26  H   -0.025519   0.005443   0.018286  -0.000919  -0.002678  -0.002468
    27  H    0.009700  -0.011528  -0.006440  -0.001004  -0.012464  -0.002033
    28  H   -0.002859  -0.000923   0.018044   0.005188  -0.026567  -0.002935
    29  H    0.016621  -0.037575   0.033471   0.001283  -0.020398   0.004548
    30  H   -0.020729   0.001673   0.034649  -0.037171   0.015165   0.003866
    31  H    0.000688   0.005489   0.002660   0.005306   0.000578   0.000439
    32  H    0.000838  -0.000714  -0.000209   0.000725   0.000140   0.000156
    33  H    0.000040   0.000729  -0.000182  -0.000700   0.000682   0.000111
    34  H    0.000376  -0.000192   0.000678   0.000406  -0.000748   0.000072
    35  H   -0.000888   0.000413   0.000798  -0.000191   0.000297   0.000029
    36  H    0.008889   0.005552  -0.024281   0.005809   0.008858  -0.005019
               7          8          9         10         11         12
     1  C   -0.680828   0.489234  -0.416714   0.593031  -0.070092   0.027557
     2  C   -0.046101  -0.271637   0.039020   0.104417  -0.033553   0.009807
     3  C    0.337308   0.341803  -0.129180  -1.082498  -0.055076  -0.050942
     4  C   -0.271291  -0.053535   0.037806   0.088574  -0.035083   0.009705
     5  C    0.482675  -0.663960  -0.428803   0.600625  -0.068699   0.028127
     6  C   -0.007179  -0.007525   0.183894  -0.254253  -0.054248   0.012194
     7  C    8.838661  -1.164775  -0.369925  -0.965945  -0.067771  -0.096943
     8  C   -1.164775   8.835517  -0.371279  -0.974743  -0.073212  -0.099925
     9  C   -0.369925  -0.371279   7.764107  -0.936020   0.098520  -0.068831
    10  C   -0.965945  -0.974743  -0.936020   9.295351  -0.202491   0.153543
    11  C   -0.067771  -0.073212   0.098520  -0.202491   5.752093   0.363327
    12  N   -0.096943  -0.099925  -0.068831   0.153543   0.363327   6.542161
    13  C   -0.060058  -0.061111   0.052369   0.067446  -0.130348   0.240959
    14  C    0.008271   0.010429   0.101644  -0.104045  -0.047607  -0.139677
    15  N    0.025330   0.028187   0.067519  -0.150654   0.321411  -0.132742
    16  H    0.086184  -0.001293  -0.044576  -0.001129   0.002255  -0.001910
    17  H    0.025102  -0.020953  -0.015830   0.015533  -0.008385   0.000794
    18  H   -0.024108   0.036046  -0.000058  -0.031259   0.003426  -0.000325
    19  H   -0.016615  -0.017732  -0.026008   0.103593   0.005834   0.000648
    20  H    0.035614  -0.023032  -0.000117  -0.031510   0.003547  -0.000317
    21  H   -0.021152   0.023641  -0.016192   0.015190  -0.008514   0.000798
    22  H   -0.001469   0.087150  -0.044749  -0.001068   0.002269  -0.001980
    23  H   -0.030324  -0.030986   0.062101  -0.023310  -0.005497   0.000222
    24  H   -0.029210  -0.029296   0.004192   0.037744   0.000027   0.001069
    25  H    0.321960  -0.105120   0.078265   0.078543  -0.043326   0.039485
    26  H    0.328349   0.072538   0.029219  -0.095014  -0.004679  -0.017909
    27  H   -0.103205   0.319196   0.077600   0.077747  -0.044429   0.039032
    28  H    0.072291   0.329053   0.029079  -0.094387  -0.003212  -0.017780
    29  H   -0.153905   0.126940   0.083992   0.273543  -0.018878  -0.006379
    30  H    0.125398  -0.151084   0.080228   0.278199  -0.018973  -0.006337
    31  H   -0.023052  -0.022185   0.031135   0.011463  -0.013382   0.329193
    32  H    0.002181  -0.001241  -0.000745   0.004015  -0.006443  -0.050684
    33  H   -0.001484   0.001750   0.000336   0.004183  -0.006520  -0.050755
    34  H   -0.002251   0.007216  -0.011202   0.001235   0.008631   0.012323
    35  H    0.007320  -0.002303  -0.011295   0.001466   0.008042   0.012115
    36  H   -0.004745  -0.003997  -0.012341   0.045593  -0.028080   0.010981
              13         14         15         16         17         18
     1  C    0.004282  -0.010291  -0.019262   0.356976  -0.067134  -0.054246
     2  C   -0.001305   0.001402   0.003341  -0.055966   0.511612   0.460461
     3  C   -0.009740   0.022661   0.055949   0.000308  -0.122227  -0.053963
     4  C   -0.001704   0.002257   0.003945   0.016424  -0.004862  -0.010922
     5  C    0.004262  -0.010555  -0.020162   0.012362   0.026750  -0.000509
     6  C    0.010203  -0.005671   0.003744  -0.054045  -0.010835  -0.002741
     7  C   -0.060058   0.008271   0.025330   0.086184   0.025102  -0.024108
     8  C   -0.061111   0.010429   0.028187  -0.001293  -0.020953   0.036046
     9  C    0.052369   0.101644   0.067519  -0.044576  -0.015830  -0.000058
    10  C    0.067446  -0.104045  -0.150654  -0.001129   0.015533  -0.031259
    11  C   -0.130348  -0.047607   0.321411   0.002255  -0.008385   0.003426
    12  N    0.240959  -0.139677  -0.132742  -0.001910   0.000794  -0.000325
    13  C    5.691745  -0.251083  -0.133975  -0.001311  -0.000331  -0.000171
    14  C   -0.251083   5.740860   0.267316   0.000519  -0.000281   0.000386
    15  N   -0.133975   0.267316   6.554981  -0.000593  -0.000796   0.000111
    16  H   -0.001311   0.000519  -0.000593   0.476077  -0.007538  -0.011000
    17  H   -0.000331  -0.000281  -0.000796  -0.007538   0.528074   0.007403
    18  H   -0.000171   0.000386   0.000111  -0.011000   0.007403   0.496599
    19  H    0.001638  -0.001796  -0.000589  -0.001078  -0.009269  -0.010711
    20  H   -0.000169   0.000388   0.000113   0.001991  -0.002211   0.002625
    21  H   -0.000340  -0.000240  -0.000710   0.001579  -0.000621  -0.002234
    22  H   -0.001332   0.000515  -0.000609  -0.000859   0.001594   0.002017
    23  H    0.000814  -0.000501   0.001796  -0.010485  -0.002488  -0.001013
    24  H    0.000858  -0.000378  -0.000428  -0.009094  -0.001622   0.004342
    25  H    0.016514  -0.006943  -0.009214  -0.009504   0.000153  -0.002302
    26  H   -0.008365   0.005852   0.012023  -0.008439   0.004861   0.002216
    27  H    0.016677  -0.006835  -0.008903  -0.000672  -0.000486  -0.000381
    28  H   -0.008369   0.005872   0.011418   0.001736  -0.000231  -0.000553
    29  H   -0.002854   0.004858   0.004897  -0.003180  -0.000489   0.003083
    30  H   -0.002679   0.004441   0.005323   0.001970  -0.001085  -0.002669
    31  H   -0.054080   0.005158   0.018013  -0.000313   0.000044   0.000026
    32  H    0.413024  -0.030811   0.013751   0.000152  -0.000088  -0.000025
    33  H    0.413497  -0.031631   0.012684  -0.000098   0.000060   0.000016
    34  H   -0.033946   0.414650  -0.048087   0.000020  -0.000078   0.000007
    35  H   -0.033074   0.414153  -0.047668  -0.000045   0.000163   0.000005
    36  H   -0.001635  -0.036979   0.342225   0.000304   0.001305  -0.000018
              19         20         21         22         23         24
     1  C   -0.000567  -0.000510   0.026581   0.012283  -0.107239  -0.052541
     2  C   -0.037906  -0.011026  -0.005381   0.016547   0.005272   0.000911
     3  C    0.325008  -0.053588  -0.120652  -0.000567   0.034471  -0.011744
     4  C   -0.039302   0.461222   0.512411  -0.056102   0.005291   0.001105
     5  C   -0.000224  -0.055424  -0.066663   0.357266  -0.107855  -0.052611
     6  C    0.021992  -0.002974  -0.010564  -0.053962   0.519949   0.457448
     7  C   -0.016615   0.035614  -0.021152  -0.001469  -0.030324  -0.029210
     8  C   -0.017732  -0.023032   0.023641   0.087150  -0.030986  -0.029296
     9  C   -0.026008  -0.000117  -0.016192  -0.044749   0.062101   0.004192
    10  C    0.103593  -0.031510   0.015190  -0.001068  -0.023310   0.037744
    11  C    0.005834   0.003547  -0.008514   0.002269  -0.005497   0.000027
    12  N    0.000648  -0.000317   0.000798  -0.001980   0.000222   0.001069
    13  C    0.001638  -0.000169  -0.000340  -0.001332   0.000814   0.000858
    14  C   -0.001796   0.000388  -0.000240   0.000515  -0.000501  -0.000378
    15  N   -0.000589   0.000113  -0.000710  -0.000609   0.001796  -0.000428
    16  H   -0.001078   0.001991   0.001579  -0.000859  -0.010485  -0.009094
    17  H   -0.009269  -0.002211  -0.000621   0.001594  -0.002488  -0.001622
    18  H   -0.010711   0.002625  -0.002234   0.002017  -0.001013   0.004342
    19  H    0.480361  -0.010698  -0.009237  -0.001118   0.001546   0.001834
    20  H   -0.010698   0.496868   0.007381  -0.011024  -0.001003   0.004296
    21  H   -0.009237   0.007381   0.527764  -0.007644  -0.002453  -0.001624
    22  H   -0.001118  -0.011024  -0.007644   0.476447  -0.010568  -0.009130
    23  H    0.001546  -0.001003  -0.002453  -0.010568   0.547115   0.006284
    24  H    0.001834   0.004296  -0.001624  -0.009130   0.006284   0.490402
    25  H    0.001833  -0.000391  -0.000473  -0.000693  -0.002069   0.000201
    26  H   -0.002496  -0.000544  -0.000234   0.001741  -0.000393  -0.001706
    27  H    0.001835  -0.002335   0.000187  -0.009738  -0.001988   0.000252
    28  H   -0.002488   0.002271   0.004839  -0.008462  -0.000429  -0.001706
    29  H   -0.005933  -0.002717  -0.001115   0.002003   0.000418  -0.000309
    30  H   -0.005676   0.003037  -0.000337  -0.003153   0.000398  -0.000315
    31  H   -0.000020   0.000020   0.000034  -0.000289   0.001994  -0.000131
    32  H   -0.000008   0.000017   0.000060  -0.000100   0.000035   0.000001
    33  H   -0.000005  -0.000024  -0.000090   0.000151   0.000030   0.000000
    34  H   -0.000031   0.000005   0.000157  -0.000044   0.000006  -0.000005
    35  H   -0.000029   0.000007  -0.000076   0.000020   0.000002  -0.000006
    36  H   -0.001311  -0.000023   0.001252   0.000315  -0.000516  -0.000020
              25         26         27         28         29         30
     1  C   -0.014211  -0.025519   0.009700  -0.002859   0.016621  -0.020729
     2  C    0.000129   0.005443  -0.011528  -0.000923  -0.037575   0.001673
     3  C   -0.007549   0.018286  -0.006440   0.018044   0.033471   0.034649
     4  C   -0.011426  -0.000919  -0.001004   0.005188   0.001283  -0.037171
     5  C    0.009606  -0.002678  -0.012464  -0.026567  -0.020398   0.015165
     6  C   -0.003029  -0.002468  -0.002033  -0.002935   0.004548   0.003866
     7  C    0.321960   0.328349  -0.103205   0.072291  -0.153905   0.125398
     8  C   -0.105120   0.072538   0.319196   0.329053   0.126940  -0.151084
     9  C    0.078265   0.029219   0.077600   0.029079   0.083992   0.080228
    10  C    0.078543  -0.095014   0.077747  -0.094387   0.273543   0.278199
    11  C   -0.043326  -0.004679  -0.044429  -0.003212  -0.018878  -0.018973
    12  N    0.039485  -0.017909   0.039032  -0.017780  -0.006379  -0.006337
    13  C    0.016514  -0.008365   0.016677  -0.008369  -0.002854  -0.002679
    14  C   -0.006943   0.005852  -0.006835   0.005872   0.004858   0.004441
    15  N   -0.009214   0.012023  -0.008903   0.011418   0.004897   0.005323
    16  H   -0.009504  -0.008439  -0.000672   0.001736  -0.003180   0.001970
    17  H    0.000153   0.004861  -0.000486  -0.000231  -0.000489  -0.001085
    18  H   -0.002302   0.002216  -0.000381  -0.000553   0.003083  -0.002669
    19  H    0.001833  -0.002496   0.001835  -0.002488  -0.005933  -0.005676
    20  H   -0.000391  -0.000544  -0.002335   0.002271  -0.002717   0.003037
    21  H   -0.000473  -0.000234   0.000187   0.004839  -0.001115  -0.000337
    22  H   -0.000693   0.001741  -0.009738  -0.008462   0.002003  -0.003153
    23  H   -0.002069  -0.000393  -0.001988  -0.000429   0.000418   0.000398
    24  H    0.000201  -0.001706   0.000252  -0.001706  -0.000309  -0.000315
    25  H    0.583344  -0.026559  -0.000732  -0.002879  -0.003347   0.000452
    26  H   -0.026559   0.511092  -0.002932  -0.001572   0.010432  -0.004343
    27  H   -0.000732  -0.002932   0.586527  -0.026841   0.000507  -0.003418
    28  H   -0.002879  -0.001572  -0.026841   0.510596  -0.004466   0.010687
    29  H   -0.003347   0.010432   0.000507  -0.004466   0.587555  -0.059575
    30  H    0.000452  -0.004343  -0.003418   0.010687  -0.059575   0.582524
    31  H   -0.006370   0.000830  -0.006179   0.000778  -0.000338  -0.000321
    32  H   -0.002777   0.000126   0.001002  -0.000074   0.000089  -0.000007
    33  H    0.001023  -0.000080  -0.002800   0.000131  -0.000019   0.000107
    34  H   -0.000227   0.000079  -0.000092  -0.000079   0.000631  -0.001432
    35  H   -0.000083  -0.000108  -0.000234   0.000084  -0.001482   0.000630
    36  H   -0.001027   0.000986  -0.001018   0.000914  -0.003612  -0.004636
              31         32         33         34         35         36
     1  C    0.000688   0.000838   0.000040   0.000376  -0.000888   0.008889
     2  C    0.005489  -0.000714   0.000729  -0.000192   0.000413   0.005552
     3  C    0.002660  -0.000209  -0.000182   0.000678   0.000798  -0.024281
     4  C    0.005306   0.000725  -0.000700   0.000406  -0.000191   0.005809
     5  C    0.000578   0.000140   0.000682  -0.000748   0.000297   0.008858
     6  C    0.000439   0.000156   0.000111   0.000072   0.000029  -0.005019
     7  C   -0.023052   0.002181  -0.001484  -0.002251   0.007320  -0.004745
     8  C   -0.022185  -0.001241   0.001750   0.007216  -0.002303  -0.003997
     9  C    0.031135  -0.000745   0.000336  -0.011202  -0.011295  -0.012341
    10  C    0.011463   0.004015   0.004183   0.001235   0.001466   0.045593
    11  C   -0.013382  -0.006443  -0.006520   0.008631   0.008042  -0.028080
    12  N    0.329193  -0.050684  -0.050755   0.012323   0.012115   0.010981
    13  C   -0.054080   0.413024   0.413497  -0.033946  -0.033074  -0.001635
    14  C    0.005158  -0.030811  -0.031631   0.414650   0.414153  -0.036979
    15  N    0.018013   0.013751   0.012684  -0.048087  -0.047668   0.342225
    16  H   -0.000313   0.000152  -0.000098   0.000020  -0.000045   0.000304
    17  H    0.000044  -0.000088   0.000060  -0.000078   0.000163   0.001305
    18  H    0.000026  -0.000025   0.000016   0.000007   0.000005  -0.000018
    19  H   -0.000020  -0.000008  -0.000005  -0.000031  -0.000029  -0.001311
    20  H    0.000020   0.000017  -0.000024   0.000005   0.000007  -0.000023
    21  H    0.000034   0.000060  -0.000090   0.000157  -0.000076   0.001252
    22  H   -0.000289  -0.000100   0.000151  -0.000044   0.000020   0.000315
    23  H    0.001994   0.000035   0.000030   0.000006   0.000002  -0.000516
    24  H   -0.000131   0.000001   0.000000  -0.000005  -0.000006  -0.000020
    25  H   -0.006370  -0.002777   0.001023  -0.000227  -0.000083  -0.001027
    26  H    0.000830   0.000126  -0.000080   0.000079  -0.000108   0.000986
    27  H   -0.006179   0.001002  -0.002800  -0.000092  -0.000234  -0.001018
    28  H    0.000778  -0.000074   0.000131  -0.000079   0.000084   0.000914
    29  H   -0.000338   0.000089  -0.000019   0.000631  -0.001482  -0.003612
    30  H   -0.000321  -0.000007   0.000107  -0.001432   0.000630  -0.004636
    31  H    0.335101   0.003705   0.003910   0.000285   0.000290   0.000439
    32  H    0.003705   0.457812  -0.017869   0.000920  -0.002398  -0.000123
    33  H    0.003910  -0.017869   0.457783  -0.002325   0.001158  -0.000130
    34  H    0.000285   0.000920  -0.002325   0.453680  -0.018904   0.000865
    35  H    0.000290  -0.002398   0.001158  -0.018904   0.453587   0.001093
    36  H    0.000439  -0.000123  -0.000130   0.000865   0.001093   0.333829
 Mulliken charges:
               1
     1  C    0.332651
     2  C   -0.775904
     3  C    0.373171
     4  C   -0.775397
     5  C    0.330923
     6  C   -0.719619
     7  C   -0.554304
     8  C   -0.557778
     9  C    0.082839
    10  C   -0.902710
    11  C    0.479114
    12  N   -0.090605
    13  C   -0.136308
    14  C   -0.326309
    15  N   -0.179687
    16  H    0.264271
    17  H    0.154391
    18  H    0.190436
    19  H    0.254724
    20  H    0.190235
    21  H    0.154671
    22  H    0.264342
    23  H    0.151372
    24  H    0.190910
    25  H    0.128744
    26  H    0.202883
    27  H    0.126426
    28  H    0.203831
    29  H    0.171700
    30  H    0.175194
    31  H    0.369079
    32  H    0.215567
    33  H    0.216332
    34  H    0.217402
    35  H    0.217111
    36  H    0.360301
 Sum of Mulliken charges =   1.00000
 Mulliken charges with hydrogens summed into heavy atoms:
               1
     1  C    0.596923
     2  C   -0.431077
     3  C    0.627895
     4  C   -0.430491
     5  C    0.595264
     6  C   -0.377337
     7  C   -0.222678
     8  C   -0.227521
     9  C    0.082839
    10  C   -0.555815
    11  C    0.479114
    12  N    0.278474
    13  C    0.295591
    14  C    0.108204
    15  N    0.180614
 Electronic spatial extent (au):  <R**2>=           3126.6905
 Charge=              1.0000 electrons
 Dipole moment (field-independent basis, Debye):
    X=             -7.7653    Y=              0.1867    Z=              0.0051  Tot=              7.7675
 Quadrupole moment (field-independent basis, Debye-Ang):
   XX=            -46.3575   YY=            -77.9173   ZZ=            -87.3586
   XY=             -0.6362   XZ=             -0.0226   YZ=             -0.0107
 Traceless Quadrupole moment (field-independent basis, Debye-Ang):
   XX=             24.1870   YY=             -7.3728   ZZ=            -16.8141
   XY=             -0.6362   XZ=             -0.0226   YZ=             -0.0107
 Octapole moment (field-independent basis, Debye-Ang**2):
  XXX=           -139.0004  YYY=              1.1028  ZZZ=              0.0183  XYY=            -27.4612
  XXY=              1.3171  XXZ=              0.0746  XZZ=             -6.3582  YZZ=             -0.1642
  YYZ=              0.0020  XYZ=              0.0302
 Hexadecapole moment (field-independent basis, Debye-Ang**3):
 XXXX=          -2280.4553 YYYY=           -642.9017 ZZZZ=           -549.8333 XXXY=             -3.5147
 XXXZ=             -0.1153 YYYX=              1.4149 YYYZ=             -0.1270 ZZZX=              0.0316
 ZZZY=              0.0191 XXYY=           -532.7087 XXZZ=           -551.2371 YYZZ=           -206.3969
 XXYZ=             -0.1368 YYXZ=             -0.1808 ZZXY=             -5.1522
 N-N= 1.106596183251D+03 E-N=-3.628897213817D+03  KE= 6.142506829754D+02

 **********************************************************************

            Electrostatic Properties Using The SCF Density

 **********************************************************************

       Atomic Center    1 is at   1.937823 -0.719419  1.263069
       Atomic Center    2 is at   2.478915  0.719399  1.251839
       Atomic Center    3 is at   1.979194  1.436788 -0.012576
       Atomic Center    4 is at   2.482952  0.695840 -1.261668
       Atomic Center    5 is at   1.941690 -0.742837 -1.247419
       Atomic Center    6 is at   2.438945 -1.466567  0.015470
       Atomic Center    7 is at   0.399318 -0.693786  1.262343
       Atomic Center    8 is at   0.403163 -0.716972 -1.251778
       Atomic Center    9 is at  -0.124249  0.019018 -0.002152
       Atomic Center   10 is at   0.441287  1.456814 -0.014887
       Atomic Center   11 is at  -1.639910  0.054609 -0.003318
       Atomic Center   12 is at  -2.348581 -1.039271 -0.000296
       Atomic Center   13 is at  -3.839890 -0.794855 -0.001064
       Atomic Center   14 is at  -3.856170  0.744194  0.004554
       Atomic Center   15 is at  -2.411323  1.062401 -0.004325
       Atomic Center   16 is at   2.301207 -1.244276  2.181503
       Atomic Center   17 is at   2.140228  1.264911  2.163708
       Atomic Center   18 is at   3.593874  0.712351  1.275414
       Atomic Center   19 is at   2.367109  2.485822 -0.021908
       Atomic Center   20 is at   3.597991  0.688157 -1.281395
       Atomic Center   21 is at   2.147380  1.224066 -2.184803
       Atomic Center   22 is at   2.307838 -1.284854 -2.154728
       Atomic Center   23 is at   2.072286 -2.519793  0.024764
       Atomic Center   24 is at   3.553214 -1.513678  0.017634
       Atomic Center   25 is at   0.020566 -1.740746  1.313979
       Atomic Center   26 is at   0.026674 -0.172712  2.175248
       Atomic Center   27 is at   0.025290 -1.764943 -1.285498
       Atomic Center   28 is at   0.033137 -0.212903 -2.175233
       Atomic Center   29 is at   0.079405  2.022065  0.876199
       Atomic Center   30 is at   0.081166  2.005283 -0.917116
       Atomic Center   31 is at  -1.950365 -1.986770  0.002520
       Atomic Center   32 is at  -4.307427 -1.229856  0.911758
       Atomic Center   33 is at  -4.303368 -1.222520 -0.919447
       Atomic Center   34 is at  -4.343578  1.167546 -0.902923
       Atomic Center   35 is at  -4.329560  1.160728  0.922641
       Atomic Center   36 is at  -2.052134  2.046838 -0.004451
 -----------------------------------------------------------------

              Electrostatic Properties (Atomic Units)

 -----------------------------------------------------------------
    Center     Electric         -------- Electric Field --------
               Potential          X             Y             Z
 -----------------------------------------------------------------
    1 Atom    -14.652668      0.003890     -0.001178      0.002146
    2 Atom    -14.669160      0.001237      0.000622      0.001229
    3 Atom    -14.652269      0.004091      0.002572     -0.000017
    4 Atom    -14.669183      0.001237      0.000598     -0.001242
    5 Atom    -14.652691      0.003894     -0.001213     -0.002115
    6 Atom    -14.668670      0.001322     -0.001272      0.000012
    7 Atom    -14.637889      0.002351     -0.002009      0.004429
    8 Atom    -14.637909      0.002355     -0.002061     -0.004371
    9 Atom    -14.594440      0.006850      0.001833     -0.000035
   10 Atom    -14.637513      0.002678      0.003138     -0.000058
[...]
   D117       0.09597   0.00028   0.00000   0.00084   0.00085   0.09682
   D118       3.07066  -0.00018   0.00000  -0.00053  -0.00053   3.07013
   D119      -3.00445   0.00015   0.00000   0.00045   0.00045  -3.00400
   D120      -0.00227  -0.00022   0.00000  -0.00067  -0.00067  -0.00293
   D121       0.10378   0.00022   0.00000   0.00067   0.00067   0.10446
   D122       3.10597  -0.00015   0.00000  -0.00045  -0.00045   3.10552
   D123      -0.23678  -0.00040   0.00000  -0.00121  -0.00122  -0.23800
   D124      -2.33703   0.00022   0.00000   0.00065   0.00065  -2.33638
   D125       1.83850  -0.00070   0.00000  -0.00210  -0.00211   1.83640
   D126       3.07315   0.00018   0.00000   0.00053   0.00053   3.07367
   D127       0.97289   0.00080   0.00000   0.00239   0.00240   0.97529
   D128      -1.13476  -0.00012   0.00000  -0.00035  -0.00036  -1.13512
   D129       0.26840  -0.00094   0.00000  -0.00280  -0.00282   0.26558
   D130       2.34780  -0.00079   0.00000  -0.00238  -0.00239   2.34541
   D131      -1.77316  -0.00032   0.00000  -0.00096  -0.00097  -1.77413
   D132       2.34756  -0.00079   0.00000  -0.00237  -0.00238   2.34518
   D133      -1.85622  -0.00065   0.00000  -0.00194  -0.00195  -1.85817
   D134       0.30600  -0.00018   0.00000  -0.00052  -0.00052   0.30547
   D135      -1.77527  -0.00029   0.00000  -0.00086  -0.00087  -1.77614
   D136       0.30414  -0.00015   0.00000  -0.00044  -0.00044   0.30370
   D137       2.46635   0.00033   0.00000   0.00098   0.00099   2.46734
   D138      -0.24147  -0.00039   0.00000  -0.00116  -0.00117  -0.24264
   D139       3.04165   0.00009   0.00000   0.00028   0.00027   3.04192
   D140      -2.34391   0.00025   0.00000   0.00074   0.00074  -2.34317
   D141       0.93921   0.00072   0.00000   0.00217   0.00218   0.94139
   D142       1.83294  -0.00065   0.00000  -0.00196  -0.00197   1.83098
   D143      -1.16712  -0.00018   0.00000  -0.00052  -0.00053  -1.16765
         Item               Value     Threshold  Converged?
 Maximum Force            0.016707     0.000450     NO 
 RMS     Force            0.001567     0.000300     NO 
 Maximum Displacement     0.053485     0.001800     NO 
 RMS     Displacement     0.008977     0.001200     NO 
 Predicted change in Energy=-9.998295D-06
 GradGradGradGradGradGradGradGradGradGradGradGradGradGradGradGradGradGrad

                          Input orientation:                          
 ---------------------------------------------------------------------
 Center     Atomic      Atomic             Coordinates (Angstroms)
 Number     Number       Type             X           Y           Z
 ---------------------------------------------------------------------
      1          6           0        1.049944   -2.096589    1.322343
      2          6           0        2.007866   -2.312060    0.135500
      3          6           0        1.263931   -2.021037   -1.182464
      4          6           0        0.052455   -2.962226   -1.320284
      5          6           0       -0.900235   -2.748686   -0.129867
      6          6           0       -0.159299   -3.042162    1.189769
      7          6           0        0.561774   -0.633540    1.342442
      8          6           0       -1.400286   -1.290278   -0.127041
      9          6           0       -0.190039   -0.321727    0.005473
     10          6           0        0.784035   -0.554504   -1.178068
     11          6           0       -0.659487    1.103314    0.054227
     12          7           0       -1.659714    1.542014    0.793443
     13          6           0       -1.940771    2.972559    0.565402
     14          6           0       -0.677284    3.409934   -0.207442
     15          7           0       -0.111375    2.105126   -0.600297
     16          1           0        1.574513   -2.291980    2.262016
     17          1           0        2.885184   -1.662411    0.229658
     18          1           0        2.376745   -3.341848    0.137408
     19          1           0        1.938643   -2.160537   -2.031459
     20          1           0        0.391086   -4.002172   -1.344401
     21          1           0       -0.469581   -2.778499   -2.265801
     22          1           0       -1.767075   -3.408724   -0.223267
     23          1           0       -0.834658   -2.923442    2.044453
     24          1           0        0.180812   -4.081861    1.200460
     25          1           0       -0.108744   -0.475835    2.193633
     26          1           0        1.407766    0.051375    1.463280
     27          1           0       -2.098987   -1.151789    0.706316
     28          1           0       -1.949198   -1.074601   -1.049970
     29          1           0        1.661601    0.096502   -1.077328
     30          1           0        0.293606   -0.315402   -2.128225
     31          1           0       -2.255100    0.930753    1.329395
     32          1           0       -2.067265    3.506417    1.505802
     33          1           0       -2.849403    3.078911   -0.031732
     34          1           0       -0.903073    4.021693   -1.079246
     35          1           0        0.034178    3.941373    0.428766
     36          1           0        0.690310    1.991651   -1.200482
 ---------------------------------------------------------------------
                    Distance matrix (angstroms):
                    1          2          3          4          5
     1  C    0.000000
     2  C    1.540336   0.000000
     3  C    2.515066   1.541156   0.000000
     4  C    2.954283   2.523025   1.540294   0.000000
     5  C    2.517408   2.952645   2.514170   1.539581   0.000000
     6  C    1.540765   2.518161   2.948859   2.520237   1.541607
     7  C    1.542474   2.522958   2.965354   3.573835   2.962939
     8  C    2.958797   3.567697   2.957360   2.515889   1.541757
     9  C    2.534135   2.968016   2.532366   2.964570   2.532356
    10  C    2.949710   2.512414   1.543062   2.520430   2.958028
    11  C    3.843130   4.334300   3.871759   4.350260   3.863904
    12  N    4.567430   5.360776   5.014703   5.261896   4.454146
    13  C    5.934105   6.610881   6.185560   6.538382   5.856514
    14  C    5.970373   6.329997   5.849311   6.509637   6.163143
    15  N    4.764411   4.954201   4.388121   5.120867   4.939949
    16  H    1.093771   2.170315   3.469051   3.949527   3.471895
    17  H    2.179582   1.095718   2.179716   3.480832   3.954573
    18  H    2.171438   1.093864   2.173697   2.769712   3.340939
    19  H    3.470138   2.173353   1.093383   2.169373   3.467160
    20  H    3.343182   2.767772   2.170939   1.093956   2.171136
    21  H    3.955849   3.481602   2.180007   1.095573   2.179121
    22  H    3.470764   3.947348   3.468823   2.171058   1.093520
    23  H    2.181022   3.478194   3.953658   3.479932   2.182317
    24  H    2.170611   2.757618   3.331436   2.761197   2.171587
    25  H    2.174522   3.476733   3.958525   4.307637   3.345289
    26  H    2.182120   2.776499   3.363858   4.320520   3.962994
    27  H    3.344832   4.305612   3.953770   3.466048   2.164783
    28  H    3.958179   4.312192   3.352237   2.764564   2.179329
    29  H    3.307898   2.718827   2.157120   3.464708   3.944082
    30  H    3.956146   3.471279   2.178345   2.777878   3.367427
    31  H    4.481982   5.487631   5.235082   5.244129   4.183703
    32  H    6.414384   7.234576   6.991165   7.370436   6.569908
    33  H    6.619986   7.258346   6.652306   6.824697   6.145711
    34  H    6.856769   7.075705   6.420370   7.053103   6.836619
    35  H    6.187668   6.564059   6.297514   7.121741   6.778059
    36  H    4.817436   4.694969   4.053521   4.996210   5.113399
                    6          7          8          9         10
     6  C    0.000000
     7  C    2.518873   0.000000
     8  C    2.518558   2.537787   0.000000
     9  C    2.967199   1.565227   1.555747   0.000000
    10  C    3.561597   2.531524   2.533235   1.550411   0.000000
    11  C    4.327195   2.483472   2.512155   1.501166   2.520053
    12  N    4.839731   3.157443   2.989393   2.500875   3.775467
    13  C    6.303995   4.457630   4.352399   3.772387   4.785857
    14  C    6.621938   4.504119   4.756174   3.769355   4.335244
    15  N    5.449882   3.424566   3.662517   2.502551   2.865171
    16  H    2.172232   2.149809   3.944671   3.476712   3.934190
    17  H    3.477701   2.774004   4.316361   3.362244   2.761154
    18  H    2.762028   3.475797   4.306372   3.965718   3.469364
    19  H    3.943974   3.951037   3.941142   3.472981   2.154237
    20  H    2.765241   4.312301   3.470641   3.963022   3.473973
    21  H    3.479477   4.322495   2.766823   3.357464   2.775045
    22  H    2.171630   3.946724   2.152118   3.474035   3.945426
    23  H    1.095760   2.772453   2.775347   3.367774   4.314705
    24  H    1.093967   3.472206   3.472041   3.962844   4.296920
    25  H    2.756145   1.094985   2.777936   2.195086   3.488784
    26  H    3.478574   1.095177   3.494897   2.194854   2.780799
    27  H    2.751295   2.784400   1.096287   2.196421   3.495635
    28  H    3.477278   3.496162   1.095271   2.185273   2.785224
    29  H    4.278624   2.756422   3.493044   2.185393   1.097305
    30  H    4.318498   3.495519   2.797211   2.187834   1.095668
    31  H    4.493988   3.222105   2.790141   2.754261   4.210665
    32  H    6.828184   4.906911   5.110706   4.519917   5.641289
    33  H    6.796783   5.225588   4.604219   4.317168   5.264756
    34  H    7.456520   5.448077   5.419497   4.533247   4.878286
    35  H    7.027540   4.694995   5.453144   4.289926   4.832919
    36  H    5.636880   3.657131   4.036573   2.753372   2.547978
                   11         12         13         14         15
    11  C    0.000000
    12  N    1.318845   0.000000
    13  C    2.323159   1.475620   0.000000
    14  C    2.321484   2.335822   1.544340   0.000000
    15  N    1.316228   2.157999   2.336233   1.475505   0.000000
    16  H    4.625268   5.226513   6.553708   6.609133   5.510861
    17  H    4.499411   5.589480   6.699665   6.213768   4.884928
    18  H    5.383780   6.369890   7.661322   7.418395   6.033612
    19  H    4.664020   5.885331   6.938459   6.418742   4.944357
    20  H    5.396837   6.286029   7.598143   7.574523   6.172944
    21  H    4.526265   5.426070   6.576837   6.525082   5.172235
    22  H    4.654271   5.055199   6.432181   6.905216   5.769405
    23  H    4.495158   4.710207   6.178504   6.723650   5.727508
    24  H    5.376429   5.931372   7.393866   7.671083   6.450342
    25  H    2.715527   2.904782   4.230707   4.603000   3.803606
    26  H    2.713953   3.475647   4.533453   4.291697   3.283905
    27  H    2.753700   2.730774   4.129786   4.864721   4.033030
    28  H    2.761506   3.213821   4.357637   4.736948   3.700062
    29  H    2.771559   4.076815   4.893603   4.148002   2.721318
    30  H    2.772046   3.975122   4.801953   4.302344   2.890938
    31  H    2.049832   1.007656   2.202603   3.316280   3.114229
    32  H    3.140671   2.128951   1.088742   2.208294   3.197621
    33  H    2.950610   2.111474   1.092470   2.204212   2.961135
    34  H    3.140228   3.198167   2.209608   1.088702   2.128241
    35  H    2.945510   2.959591   2.204018   1.092413   2.109967
    36  H    2.045823   3.114566   3.317094   2.206347   1.007867
                   16         17         18         19         20
    16  H    0.000000
    17  H    2.498939   0.000000
    18  H    2.501951   1.757137   0.000000
    19  H    4.310892   2.501343   2.508268   0.000000
    20  H    4.163112   3.764660   2.564104   2.501719   0.000000
    21  H    4.991608   4.327518   3.767538   2.497265   1.757014
    22  H    4.311607   4.989816   4.160024   4.308117   2.503354
    23  H    2.500037   4.326767   3.758324   4.988615   3.761707
    24  H    2.504591   3.756305   2.549475   4.150512   2.554777
    25  H    2.477178   3.772104   4.315061   4.988127   5.020216
    26  H    2.481350   2.577140   3.769724   4.169842   5.034675
    27  H    4.149076   5.032881   5.015196   4.981509   4.304716
    28  H    4.986762   5.035297   5.026336   4.154261   3.759560
    29  H    4.106537   2.509808   3.716082   2.466038   4.299379
    30  H    4.982148   3.753707   4.316473   2.473870   3.770432
    31  H    5.091338   5.861437   6.413263   6.199910   6.203646
    32  H    6.888818   7.271318   8.277709   7.789344   8.399170
    33  H    7.326580   7.445397   8.280542   7.374015   7.897189
    34  H    7.560749   6.955081   8.152251   6.870373   8.131885
    35  H    6.677433   6.290490   7.656227   6.849306   8.146864
    36  H    5.578548   4.496103   5.751541   4.414694   6.003013
                   21         22         23         24         25
    21  H    0.000000
    22  H    2.500524   0.000000
    23  H    4.328116   2.499490   0.000000
    24  H    3.759884   2.504870   1.756542   0.000000
    25  H    5.031801   4.146481   2.557340   3.751488   0.000000
    26  H    5.043676   4.989623   3.770380   4.319506   1.763851
    27  H    3.759605   2.463341   2.554974   3.745262   2.574897
    28  H    2.563354   2.482889   3.773045   4.317985   3.777135
    29  H    3.770947   4.977133   5.009680   4.983951   3.763094
    30  H    2.582292   4.176592   5.048376   5.027831   4.343510
    31  H    5.465534   4.634651   4.169387   5.574638   2.707812
    32  H    7.501851   7.134352   6.569061   7.920167   4.490796
    33  H    6.705511   6.580086   6.663181   7.872557   5.009958
    34  H    6.916534   7.529296   7.615582   8.487606   5.618760
    35  H    7.257489   7.595629   7.105702   8.061594   4.758877
    36  H    5.023404   6.013131   6.083854   6.550699   4.271650
                   26         27         28         29         30
    26  H    0.000000
    27  H    3.783901   0.000000
    28  H    4.342056   1.764351   0.000000
    29  H    2.553655   4.345300   3.796064   0.000000
    30  H    3.778198   3.802455   2.601766   1.773544   0.000000
    31  H    3.769326   2.179353   3.126722   4.672134   4.472576
    32  H    4.900506   4.726422   5.247060   5.674903   5.778076
    33  H    5.433646   4.359663   4.370221   5.507921   5.078892
    34  H    5.250508   5.602085   5.202638   4.688783   4.619826
    35  H    4.253121   5.528808   5.592891   4.438452   4.972487
    36  H    3.372690   4.614896   4.048649   2.133111   2.518049
                   31         32         33         34         35
    31  H    0.000000
    32  H    2.588523   0.000000
    33  H    2.611598   1.777221   0.000000
    34  H    4.145291   2.881549   2.402982   0.000000
    35  H    3.887899   2.401095   3.044822   1.777356   0.000000
    36  H    4.025074   4.150025   3.882999   2.583532   2.624190
                   36
    36  H    0.000000
 Stoichiometry    C13H21N2(1+)
 Framework group  C1[X(C13H21N2)]
 Deg. of freedom   102
 Full point group                 C1      NOp   1
 Largest Abelian subgroup         C1      NOp   1
 Largest concise Abelian subgroup C1      NOp   1
                         Standard orientation:                         
 ---------------------------------------------------------------------
 Center     Atomic      Atomic             Coordinates (Angstroms)
 Number     Number       Type             X           Y           Z
 ---------------------------------------------------------------------
      1          6           0        1.905779   -0.292823    1.438911
      2          6           0        2.442283    1.080855    0.994155
      3          6           0        1.974656    1.371738   -0.445246
      4          6           0        2.498425    0.280617   -1.397941
      5          6           0        1.965269   -1.091708   -0.947632
      6          6           0        2.434250   -1.386515    0.491012
      7          6           0        0.363561   -0.286651    1.411482
      8          6           0        0.424299   -1.085597   -0.996496
      9          6           0       -0.125698    0.015014   -0.044388
     10          6           0        0.432154    1.394424   -0.480051
     11          6           0       -1.626850    0.008363   -0.044151
     12          7           0       -2.375306   -1.073299    0.051615
     13          6           0       -3.815162   -0.771382   -0.062892
     14          6           0       -3.816911    0.763819    0.104862
     15          7           0       -2.389955    1.079432   -0.098359
     16          1           0        2.225877   -0.501435    2.463778
     17          1           0        2.093503    1.865853    1.674397
     18          1           0        3.535138    1.086250    1.040806
     19          1           0        2.341270    2.350269   -0.767051
     20          1           0        3.592348    0.275680   -1.391134
     21          1           0        2.190371    0.491508   -2.427945
     22          1           0        2.327142   -1.871945   -1.622956
     23          1           0        2.087016   -2.374438    0.813700
     24          1           0        3.527362   -1.410850    0.526750
     25          1           0       -0.019124   -1.258442    1.740368
     26          1           0       -0.029224    0.468114    2.101020
     27          1           0        0.051687   -2.073405   -0.701130
     28          1           0        0.076889   -0.900015   -2.018496
     29          1           0        0.081966    2.176077    0.205854
     30          1           0        0.081386    1.646859   -1.486891
     31          1           0       -1.994503   -2.006213    0.045978
     32          1           0       -4.389670   -1.281736    0.708365
     33          1           0       -4.179663   -1.081389   -1.044995
     34          1           0       -4.442309    1.270550   -0.628194
     35          1           0       -4.120775    1.070489    1.108349
     36          1           0       -2.016182    2.014359   -0.143120
 ---------------------------------------------------------------------
 Rotational constants (GHZ):      1.3799089      0.4192093      0.4004929
 Standard basis: 6-311++G(d,p) (5D, 7F)
 There are   492 symmetry adapted cartesian basis functions of A   symmetry.
 There are   477 symmetry adapted basis functions of A   symmetry.
   477 basis functions,   729 primitive gaussians,   492 cartesian basis functions
    56 alpha electrons       56 beta electrons
       nuclear repulsion energy      1107.5726859122 Hartrees.
 NAtoms=   36 NActive=   36 NUniq=   36 SFac= 1.00D+00 NAtFMM=   60 NAOKFM=F Big=F
 Integral buffers will be    131072 words long.
 Raffenetti 2 integral format.
 Two-electron integral symmetry is turned on.
 One-electron integrals computed using PRISM.
 NBasis=   477 RedAO= T EigKep=  3.01D-06  NBF=   477
 NBsUse=   476 1.00D-06 EigRej=  2.11D-07 NBFU=   476
 Initial guess from the checkpoint file:  "Anth_390.chk"
 B after Tr=     0.000000    0.000000    0.000000
         Rot=    1.000000    0.000597   -0.000033    0.000017 Ang=   0.07 deg.
 ExpMin= 3.60D-02 ExpMax= 6.29D+03 ExpMxC= 9.49D+02 IAcc=3 IRadAn=         5 AccDes= 0.00D+00
 Harris functional with IExCor=  402 and IRadAn=       5 diagonalized for initial guess.
 HarFok:  IExCor=  402 AccDes= 0.00D+00 IRadAn=         5 IDoV= 1 UseB2=F ITyADJ=14
 ICtDFT=  3500011 ScaDFX=  1.000000  1.000000  1.000000  1.000000
 FoFCou: FMM=F IPFlag=           0 FMFlag=      100000 FMFlg1=           0
         NFxFlg=           0 DoJE=T BraDBF=F KetDBF=T FulRan=T
         wScrn=  0.000000 ICntrl=     500 IOpCl=  0 I1Cent=   200000004 NGrid=           0
         NMat0=    1 NMatS0=      1 NMatT0=    0 NMatD0=    1 NMtDS0=    0 NMtDT0=    0
 Petite list used in FoFCou.
 Keep R1 ints in memory in canonical form, NReq=6559068616.
 Requested convergence on RMS density matrix=1.00D-08 within 128 cycles.
 Requested convergence on MAX density matrix=1.00D-06.
 Requested convergence on             energy=1.00D-06.
 No special actions if energy rises.
