 Entering Link 1 = C:\G09W\l1.exe PID=      5376.
  
 Copyright (c) 1988,1990,1992,1993,1995,1998,2003,2009,2013,
            Gaussian, Inc.  All Rights Reserved.
  
 This is part of the Gaussian(R) 09 program.  It is based on
 the Gaussian(R) 03 system (copyright 2003, Gaussian, Inc.),
 the Gaussian(R) 98 system (copyright 1998, Gaussian, Inc.),
 the Gaussian(R) 94 system (copyright 1995, Gaussian, Inc.),
 the Gaussian 92(TM) system (copyright 1992, Gaussian, Inc.),
 the Gaussian 90(TM) system (copyright 1990, Gaussian, Inc.),
 the Gaussian 88(TM) system (copyright 1988, Gaussian, Inc.),
 the Gaussian 86(TM) system (copyright 1986, Carnegie Mellon
 University), and the Gaussian 82(TM) system (copyright 1983,
 Carnegie Mellon University). Gaussian is a federally registered
 trademark of Gaussian, Inc.
  
 This software contains proprietary and confidential information,
 including trade secrets, belonging to Gaussian, Inc.
  
 This software is provided under written license and may be
 used, copied, transmitted, or stored only in accord with that
 written license.
  
 The following legend is applicable only to US Government
 contracts under FAR:
  
                    RESTRICTED RIGHTS LEGEND
  
 Use, reproduction and disclosure by the US Government is
 subject to restrictions as set forth in subparagraphs (a)
 and (c) of the Commercial Computer Software - Restricted
 Rights clause in FAR 52.227-19.
  
 Gaussian, Inc.
 340 Quinnipiac St., Bldg. 40, Wallingford CT 06492
  
  
 ---------------------------------------------------------------
 Warning -- This program may not be used in any manner that
 competes with the business of Gaussian, Inc. or will provide
 assistance to any competitor of Gaussian, Inc.  The licensee
 of this program is prohibited from giving any competitor of
 Gaussian, Inc. access to this program.  By using this program,
 the user acknowledges that Gaussian, Inc. is engaged in the
 business of creating and licensing software in the field of
 computational chemistry and represents and warrants to the
 licensee that it is not a competitor of Gaussian, Inc. and that
 it will not use this program in any manner prohibited above.
 ---------------------------------------------------------------
  

 Cite this work as:
 Gaussian 09, Revision D.01,
 M. J. Frisch, G. W. Trucks, H. B. Schlegel, G. E. Scuseria, 
 M. A. Robb, J. R. Cheeseman, G. Scalmani, V. Barone, B. Mennucci, 
 G. A. Petersson, H. Nakatsuji, M. Caricato, X. Li, H. P. Hratchian, 
 A. F. Izmaylov, J. Bloino, G. Zheng, J. L. Sonnenberg, M. Hada, 
 M. Ehara, K. Toyota, R. Fukuda, J. Hasegawa, M. Ishida, T. Nakajima, 
 Y. Honda, O. Kitao, H. Nakai, T. Vreven, J. A. Montgomery, Jr., 
 J. E. Peralta, F. Ogliaro, M. Bearpark, J. J. Heyd, E. Brothers, 
 K. N. Kudin, V. N. Staroverov, T. Keith, R. Kobayashi, J. Normand, 
 K. Raghavachari, A. Rendell, J. C. Burant, S. S. Iyengar, J. Tomasi, 
 M. Cossi, N. Rega, J. M. Millam, M. Klene, J. E. Knox, J. B. Cross, 
 V. Bakken, C. Adamo, J. Jaramillo, R. Gomperts, R. E. Stratmann, 
 O. Yazyev, A. J. Austin, R. Cammi, C. Pomelli, J. W. Ochterski, 
 R. L. Martin, K. Morokuma, V. G. Zakrzewski, G. A. Voth, 
 P. Salvador, J. J. Dannenberg, S. Dapprich, A. D. Daniels, 
 O. Farkas, J. B. Foresman, J. V. Ortiz, J. Cioslowski, 
 and D. J. Fox, Gaussian, Inc., Wallingford CT, 2013.
 
 ******************************************
 Gaussian 09:  EM64W-G09RevD.01 13-Apr-2013
                22-Aug-2018 
 ******************************************
 %Chk=Anth_391.chk
 %Mem=64GB
 %NProcShared=20
 Will use up to   20 processors via shared memory.
 -------------------------------------
 # RB3LYP/6-311++G** Opt Test prop=EFG
 -------------------------------------
 1/14=-1,18=20,19=15,26=3,38=1/1,3;
 2/9=110,12=2,17=6,18=5,40=1/2;
 3/5=4,6=6,7=1111,11=2,16=1,25=1,30=1,71=1,74=-5,116=1/1,2,3;
 4//1;
 5/5=2,38=5/2;
 6/7=2,8=2,9=2,10=2,14=1,28=1/1,2;
 7//1,2,3,16;
 1/14=-1,18=20,19=15,26=3/3(2);
 2/9=110/2;
 99//99;
 2/9=110/2;
 3/5=4,6=6,7=1111,11=2,16=1,25=1,30=1,71=1,74=-5,116=1/1,2,3;
 4/5=5,16=3,69=1/1;
 5/5=2,38=5/2;
 7//1,2,3,16;
 1/14=-1,18=20,19=15,26=3/3(-5);
 2/9=110/2;
 6/7=2,8=2,9=2,10=2,14=1,19=2,28=1/1,2;
 99/9=1/99;
 --------
 C16N4H26
 --------
 Symbolic Z-matrix:
 Charge =  2 Multiplicity = 1
 C                     0.20623  -1.97438  -0.33371 
 C                     0.93908  -2.34129  -1.63967 
 C                     0.04374  -2.03735  -2.85297 
 C                    -1.25329  -2.85711  -2.75123 
 C                    -1.99751  -2.47037  -1.46231 
 C                    -1.10812  -2.77544  -0.24497 
 C                    -0.15959  -0.47157  -0.40334 
 C                    -2.34601  -0.97271  -1.50083 
 C                    -1.05905  -0.13209  -1.61785 
 C                    -0.29874  -0.53843  -2.89582 
 C                    -1.38982   1.352    -1.64265 
 N                    -2.13789   1.88606  -2.56942 
 C                    -2.3371    3.37441  -2.40295 
 C                    -1.50592   3.61085  -1.12917 
 N                    -1.01648   2.24808  -0.82492 
 C                     1.08772  -2.26188   0.87212 
 N                     1.50683  -1.44732   1.75072 
 C                     2.34829  -2.04457   2.81088 
 C                     2.38759  -3.52346   2.38675 
 N                     1.53036  -3.45959   1.14413 
 H                     1.8924   -1.76769  -1.71661 
 H                     1.2125   -3.42175  -1.65073 
 H                     0.58578  -2.31821  -3.79049 
 H                    -1.02037  -3.94779  -2.749 
 H                    -1.89923  -2.66784  -3.64048 
 H                    -2.94128  -3.06651  -1.38761 
 H                    -1.64906  -2.5184    0.6958 
 H                    -0.90315  -3.87044  -0.20878 
 H                    -0.68456  -0.1777    0.53637 
 H                     0.77749   0.13152  -0.4594 
 H                    -2.90565  -0.68813  -0.57914 
 H                    -3.02583  -0.77862  -2.36251 
 H                     0.63547   0.06301  -2.99201 
 H                    -0.91044  -0.3296   -3.80386 
 H                    -2.55872   1.35917  -3.3451 
 H                    -3.41645   3.60886  -2.25742 
 H                    -1.93295   3.92321  -3.28415 
 H                    -0.64249   4.29184  -1.30601 
 H                    -2.12347   3.98941  -0.28314 
 H                    -0.40479   2.04546   0.00147 
 H                     1.26983  -0.42666   1.72968 
 H                     3.35746  -1.57344   2.80453 
 H                     1.865    -1.89991   3.80386 
 H                     1.92656  -4.19711   3.14484 
 H                     3.41645  -3.86693   2.13252 
 H                     1.32466  -4.29184   0.57714 
 

 GradGradGradGradGradGradGradGradGradGradGradGradGradGradGradGradGradGrad
 Berny optimization.
 Initialization pass.
                           ----------------------------
                           !    Initial Parameters    !
                           ! (Angstroms and Degrees)  !
 --------------------------                            --------------------------
 ! Name  Definition              Value          Derivative Info.                !
 --------------------------------------------------------------------------------
 ! R1    R(1,2)                  1.5418         estimate D2E/DX2                !
 ! R2    R(1,6)                  1.5418         estimate D2E/DX2                !
 ! R3    R(1,7)                  1.5483         estimate D2E/DX2                !
 ! R4    R(1,16)                 1.5211         estimate D2E/DX2                !
 ! R5    R(2,3)                  1.5382         estimate D2E/DX2                !
 ! R6    R(2,21)                 1.1152         estimate D2E/DX2                !
 ! R7    R(2,22)                 1.1146         estimate D2E/DX2                !
 ! R8    R(3,4)                  1.5377         estimate D2E/DX2                !
 ! R9    R(3,10)                 1.5381         estimate D2E/DX2                !
 ! R10   R(3,23)                 1.1188         estimate D2E/DX2                !
 ! R11   R(4,5)                  1.5378         estimate D2E/DX2                !
 ! R12   R(4,24)                 1.1153         estimate D2E/DX2                !
 ! R13   R(4,25)                 1.1153         estimate D2E/DX2                !
 ! R14   R(5,6)                  1.5382         estimate D2E/DX2                !
 ! R15   R(5,8)                  1.5382         estimate D2E/DX2                !
 ! R16   R(5,26)                 1.1188         estimate D2E/DX2                !
 ! R17   R(6,27)                 1.1152         estimate D2E/DX2                !
 ! R18   R(6,28)                 1.1146         estimate D2E/DX2                !
 ! R19   R(7,9)                  1.549          estimate D2E/DX2                !
 ! R20   R(7,29)                 1.1158         estimate D2E/DX2                !
 ! R21   R(7,30)                 1.1158         estimate D2E/DX2                !
 ! R22   R(8,9)                  1.5416         estimate D2E/DX2                !
 ! R23   R(8,31)                 1.1152         estimate D2E/DX2                !
 ! R24   R(8,32)                 1.1146         estimate D2E/DX2                !
 ! R25   R(9,10)                 1.5416         estimate D2E/DX2                !
 ! R26   R(9,11)                 1.5207         estimate D2E/DX2                !
 ! R27   R(10,33)                1.1152         estimate D2E/DX2                !
 ! R28   R(10,34)                1.1146         estimate D2E/DX2                !
 ! R29   R(11,12)                1.3053         estimate D2E/DX2                !
 ! R30   R(11,15)                1.2693         estimate D2E/DX2                !
 ! R31   R(12,13)                1.5108         estimate D2E/DX2                !
 ! R32   R(12,35)                1.0278         estimate D2E/DX2                !
 ! R33   R(13,14)                1.5393         estimate D2E/DX2                !
 ! R34   R(13,36)                1.1141         estimate D2E/DX2                !
 ! R35   R(13,37)                1.114          estimate D2E/DX2                !
 ! R36   R(14,15)                1.4796         estimate D2E/DX2                !
 ! R37   R(14,38)                1.1138         estimate D2E/DX2                !
 ! R38   R(14,39)                1.1138         estimate D2E/DX2                !
 ! R39   R(15,40)                1.0479         estimate D2E/DX2                !
 ! R40   R(16,17)                1.2693         estimate D2E/DX2                !
 ! R41   R(16,20)                1.3055         estimate D2E/DX2                !
 ! R42   R(17,18)                1.4794         estimate D2E/DX2                !
 ! R43   R(17,41)                1.048          estimate D2E/DX2                !
 ! R44   R(18,19)                1.539          estimate D2E/DX2                !
 ! R45   R(18,42)                1.1137         estimate D2E/DX2                !
 ! R46   R(18,43)                1.1138         estimate D2E/DX2                !
 ! R47   R(19,20)                1.511          estimate D2E/DX2                !
 ! R48   R(19,44)                1.114          estimate D2E/DX2                !
 ! R49   R(19,45)                1.1141         estimate D2E/DX2                !
 ! R50   R(20,46)                1.0278         estimate D2E/DX2                !
 ! A1    A(2,1,6)              109.2872         estimate D2E/DX2                !
 ! A2    A(2,1,7)              107.7698         estimate D2E/DX2                !
 ! A3    A(2,1,16)             110.5511         estimate D2E/DX2                !
 ! A4    A(6,1,7)              107.7869         estimate D2E/DX2                !
 ! A5    A(6,1,16)             110.4998         estimate D2E/DX2                !
 ! A6    A(7,1,16)             110.8574         estimate D2E/DX2                !
 ! A7    A(1,2,3)              110.1467         estimate D2E/DX2                !
 ! A8    A(1,2,21)             110.0197         estimate D2E/DX2                !
 ! A9    A(1,2,22)             110.8358         estimate D2E/DX2                !
 ! A10   A(3,2,21)             109.969          estimate D2E/DX2                !
 ! A11   A(3,2,22)             109.0567         estimate D2E/DX2                !
 ! A12   A(21,2,22)            106.7506         estimate D2E/DX2                !
 ! A13   A(2,3,4)              109.477          estimate D2E/DX2                !
 ! A14   A(2,3,10)             110.1288         estimate D2E/DX2                !
 ! A15   A(2,3,23)             109.2305         estimate D2E/DX2                !
 ! A16   A(4,3,10)             109.4838         estimate D2E/DX2                !
 ! A17   A(4,3,23)             109.285          estimate D2E/DX2                !
 ! A18   A(10,3,23)            109.2189         estimate D2E/DX2                !
 ! A19   A(3,4,5)              109.244          estimate D2E/DX2                !
 ! A20   A(3,4,24)             110.201          estimate D2E/DX2                !
 ! A21   A(3,4,25)             110.1995         estimate D2E/DX2                !
 ! A22   A(5,4,24)             110.2027         estimate D2E/DX2                !
 ! A23   A(5,4,25)             110.2021         estimate D2E/DX2                !
 ! A24   A(24,4,25)            106.7693         estimate D2E/DX2                !
 ! A25   A(4,5,6)              109.4895         estimate D2E/DX2                !
 ! A26   A(4,5,8)              109.4831         estimate D2E/DX2                !
 ! A27   A(4,5,26)             109.2819         estimate D2E/DX2                !
 ! A28   A(6,5,8)              110.1169         estimate D2E/DX2                !
 ! A29   A(6,5,26)             109.2224         estimate D2E/DX2                !
 ! A30   A(8,5,26)             109.2302         estimate D2E/DX2                !
 ! A31   A(1,6,5)              110.1405         estimate D2E/DX2                !
 ! A32   A(1,6,27)             110.0164         estimate D2E/DX2                !
 ! A33   A(1,6,28)             110.8254         estimate D2E/DX2                !
 ! A34   A(5,6,27)             109.965          estimate D2E/DX2                !
 ! A35   A(5,6,28)             109.0792         estimate D2E/DX2                !
 ! A36   A(27,6,28)            106.7525         estimate D2E/DX2                !
 ! A37   A(1,7,9)              112.6561         estimate D2E/DX2                !
 ! A38   A(1,7,29)             109.2037         estimate D2E/DX2                !
 ! A39   A(1,7,30)             109.1753         estimate D2E/DX2                !
 ! A40   A(9,7,29)             109.2328         estimate D2E/DX2                !
 ! A41   A(9,7,30)             109.2584         estimate D2E/DX2                !
 ! A42   A(29,7,30)            107.1633         estimate D2E/DX2                !
 ! A43   A(5,8,9)              110.1015         estimate D2E/DX2                !
 ! A44   A(5,8,31)             109.9662         estimate D2E/DX2                !
 ! A45   A(5,8,32)             109.0933         estimate D2E/DX2                !
 ! A46   A(9,8,31)             110.0299         estimate D2E/DX2                !
 ! A47   A(9,8,32)             110.8265         estimate D2E/DX2                !
 ! A48   A(31,8,32)            106.7635         estimate D2E/DX2                !
 ! A49   A(7,9,8)              107.8028         estimate D2E/DX2                !
 ! A50   A(7,9,10)             107.8086         estimate D2E/DX2                !
 ! A51   A(7,9,11)             110.6696         estimate D2E/DX2                !
 ! A52   A(8,9,10)             109.3251         estimate D2E/DX2                !
 ! A53   A(8,9,11)             110.5982         estimate D2E/DX2                !
 ! A54   A(10,9,11)            110.5486         estimate D2E/DX2                !
 ! A55   A(3,10,9)             110.0957         estimate D2E/DX2                !
 ! A56   A(3,10,33)            109.9645         estimate D2E/DX2                !
 ! A57   A(3,10,34)            109.1159         estimate D2E/DX2                !
 ! A58   A(9,10,33)            110.0291         estimate D2E/DX2                !
 ! A59   A(9,10,34)            110.8126         estimate D2E/DX2                !
 ! A60   A(33,10,34)           106.7634         estimate D2E/DX2                !
 ! A61   A(9,11,12)            122.3806         estimate D2E/DX2                !
 ! A62   A(9,11,15)            127.9159         estimate D2E/DX2                !
 ! A63   A(12,11,15)           109.7035         estimate D2E/DX2                !
 ! A64   A(11,12,13)           113.6035         estimate D2E/DX2                !
 ! A65   A(11,12,35)           124.1085         estimate D2E/DX2                !
 ! A66   A(13,12,35)           122.2881         estimate D2E/DX2                !
 ! A67   A(12,13,14)            99.8634         estimate D2E/DX2                !
 ! A68   A(12,13,36)           110.4543         estimate D2E/DX2                !
 ! A69   A(12,13,37)           110.5063         estimate D2E/DX2                !
 ! A70   A(14,13,36)           112.5034         estimate D2E/DX2                !
 ! A71   A(14,13,37)           112.5204         estimate D2E/DX2                !
 ! A72   A(36,13,37)           110.5572         estimate D2E/DX2                !
 ! A73   A(13,14,15)           101.9647         estimate D2E/DX2                !
 ! A74   A(13,14,38)           112.404          estimate D2E/DX2                !
 ! A75   A(13,14,39)           112.4208         estimate D2E/DX2                !
 ! A76   A(15,14,38)           109.8377         estimate D2E/DX2                !
 ! A77   A(15,14,39)           109.8935         estimate D2E/DX2                !
 ! A78   A(38,14,39)           110.0371         estimate D2E/DX2                !
 ! A79   A(11,15,14)           114.864          estimate D2E/DX2                !
 ! A80   A(11,15,40)           122.9052         estimate D2E/DX2                !
 ! A81   A(14,15,40)           122.2302         estimate D2E/DX2                !
 ! A82   A(1,16,17)            128.2277         estimate D2E/DX2                !
 ! A83   A(1,16,20)            122.3472         estimate D2E/DX2                !
 ! A84   A(17,16,20)           109.425          estimate D2E/DX2                !
 ! A85   A(16,17,18)           115.1354         estimate D2E/DX2                !
 ! A86   A(16,17,41)           122.4404         estimate D2E/DX2                !
 ! A87   A(18,17,41)           122.4234         estimate D2E/DX2                !
 ! A88   A(17,18,19)           101.8282         estimate D2E/DX2                !
 ! A89   A(17,18,42)           109.9083         estimate D2E/DX2                !
 ! A90   A(17,18,43)           109.8554         estimate D2E/DX2                !
 ! A91   A(19,18,42)           112.4443         estimate D2E/DX2                !
 ! A92   A(19,18,43)           112.4317         estimate D2E/DX2                !
 ! A93   A(42,18,43)           110.0784         estimate D2E/DX2                !
 ! A94   A(18,19,20)            99.877          estimate D2E/DX2                !
 ! A95   A(18,19,44)           112.5184         estimate D2E/DX2                !
 ! A96   A(18,19,45)           112.5029         estimate D2E/DX2                !
 ! A97   A(20,19,44)           110.5127         estimate D2E/DX2                !
 ! A98   A(20,19,45)           110.4442         estimate D2E/DX2                !
 ! A99   A(44,19,45)           110.5515         estimate D2E/DX2                !
 ! A100  A(16,20,19)           113.7331         estimate D2E/DX2                !
 ! A101  A(16,20,46)           124.0597         estimate D2E/DX2                !
 ! A102  A(19,20,46)           122.2072         estimate D2E/DX2                !
 ! D1    D(6,1,2,3)             58.5824         estimate D2E/DX2                !
 ! D2    D(6,1,2,21)           179.9709         estimate D2E/DX2                !
 ! D3    D(6,1,2,22)           -62.1976         estimate D2E/DX2                !
 ! D4    D(7,1,2,3)            -58.2902         estimate D2E/DX2                !
 ! D5    D(7,1,2,21)            63.0983         estimate D2E/DX2                !
 ! D6    D(7,1,2,22)          -179.0702         estimate D2E/DX2                !
 ! D7    D(16,1,2,3)          -179.5849         estimate D2E/DX2                !
 ! D8    D(16,1,2,21)          -58.1964         estimate D2E/DX2                !
 ! D9    D(16,1,2,22)           59.635          estimate D2E/DX2                !
 ! D10   D(2,1,6,5)            -58.573          estimate D2E/DX2                !
 ! D11   D(2,1,6,27)          -179.9504         estimate D2E/DX2                !
 ! D12   D(2,1,6,28)            62.2243         estimate D2E/DX2                !
 ! D13   D(7,1,6,5)             58.2887         estimate D2E/DX2                !
 ! D14   D(7,1,6,27)           -63.0886         estimate D2E/DX2                !
 ! D15   D(7,1,6,28)           179.0861         estimate D2E/DX2                !
 ! D16   D(16,1,6,5)           179.5634         estimate D2E/DX2                !
 ! D17   D(16,1,6,27)           58.1861         estimate D2E/DX2                !
 ! D18   D(16,1,6,28)          -59.6392         estimate D2E/DX2                !
 ! D19   D(2,1,7,9)             58.9307         estimate D2E/DX2                !
 ! D20   D(2,1,7,29)          -179.5106         estimate D2E/DX2                !
 ! D21   D(2,1,7,30)           -62.6406         estimate D2E/DX2                !
 ! D22   D(6,1,7,9)            -58.9142         estimate D2E/DX2                !
 ! D23   D(6,1,7,29)            62.6446         estimate D2E/DX2                !
 ! D24   D(6,1,7,30)           179.5145         estimate D2E/DX2                !
 ! D25   D(16,1,7,9)          -179.9657         estimate D2E/DX2                !
 ! D26   D(16,1,7,29)          -58.4069         estimate D2E/DX2                !
 ! D27   D(16,1,7,30)           58.463          estimate D2E/DX2                !
 ! D28   D(2,1,16,17)          119.7375         estimate D2E/DX2                !
 ! D29   D(2,1,16,20)          -60.3934         estimate D2E/DX2                !
 ! D30   D(6,1,16,17)         -119.1467         estimate D2E/DX2                !
 ! D31   D(6,1,16,20)           60.7224         estimate D2E/DX2                !
 ! D32   D(7,1,16,17)            0.2894         estimate D2E/DX2                !
 ! D33   D(7,1,16,20)         -179.8415         estimate D2E/DX2                !
 ! D34   D(1,2,3,4)            -59.8215         estimate D2E/DX2                !
 ! D35   D(1,2,3,10)            60.6044         estimate D2E/DX2                !
 ! D36   D(1,2,3,23)          -179.4509         estimate D2E/DX2                !
 ! D37   D(21,2,3,4)           178.7597         estimate D2E/DX2                !
 ! D38   D(21,2,3,10)          -60.8143         estimate D2E/DX2                !
 ! D39   D(21,2,3,23)           59.1304         estimate D2E/DX2                !
 ! D40   D(22,2,3,4)            62.0199         estimate D2E/DX2                !
 ! D41   D(22,2,3,10)         -177.5541         estimate D2E/DX2                !
 ! D42   D(22,2,3,23)          -57.6094         estimate D2E/DX2                !
 ! D43   D(2,3,4,5)             60.4017         estimate D2E/DX2                !
 ! D44   D(2,3,4,24)           -60.8102         estimate D2E/DX2                !
 ! D45   D(2,3,4,25)          -178.3879         estimate D2E/DX2                !
 ! D46   D(10,3,4,5)           -60.4166         estimate D2E/DX2                !
 ! D47   D(10,3,4,24)          178.3714         estimate D2E/DX2                !
 ! D48   D(10,3,4,25)           60.7937         estimate D2E/DX2                !
 ! D49   D(23,3,4,5)           179.9976         estimate D2E/DX2                !
 ! D50   D(23,3,4,24)           58.7857         estimate D2E/DX2                !
 ! D51   D(23,3,4,25)          -58.7921         estimate D2E/DX2                !
 ! D52   D(2,3,10,9)           -60.5912         estimate D2E/DX2                !
 ! D53   D(2,3,10,33)           60.8032         estimate D2E/DX2                !
 ! D54   D(2,3,10,34)          177.5903         estimate D2E/DX2                !
 ! D55   D(4,3,10,9)            59.8306         estimate D2E/DX2                !
 ! D56   D(4,3,10,33)         -178.775          estimate D2E/DX2                !
 ! D57   D(4,3,10,34)          -61.9879         estimate D2E/DX2                !
 ! D58   D(23,3,10,9)          179.457          estimate D2E/DX2                !
 ! D59   D(23,3,10,33)         -59.1486         estimate D2E/DX2                !
 ! D60   D(23,3,10,34)          57.6385         estimate D2E/DX2                !
 ! D61   D(3,4,5,6)            -60.4038         estimate D2E/DX2                !
 ! D62   D(3,4,5,8)             60.4073         estimate D2E/DX2                !
 ! D63   D(3,4,5,26)          -179.9954         estimate D2E/DX2                !
 ! D64   D(24,4,5,6)            60.8071         estimate D2E/DX2                !
 ! D65   D(24,4,5,8)          -178.3818         estimate D2E/DX2                !
 ! D66   D(24,4,5,26)          -58.7845         estimate D2E/DX2                !
 ! D67   D(25,4,5,6)           178.3874         estimate D2E/DX2                !
 ! D68   D(25,4,5,8)           -60.8015         estimate D2E/DX2                !
 ! D69   D(25,4,5,26)           58.7958         estimate D2E/DX2                !
 ! D70   D(4,5,6,1)             59.8135         estimate D2E/DX2                !
 ! D71   D(4,5,6,27)          -178.7785         estimate D2E/DX2                !
 ! D72   D(4,5,6,28)           -62.0256         estimate D2E/DX2                !
 ! D73   D(8,5,6,1)            -60.612          estimate D2E/DX2                !
 ! D74   D(8,5,6,27)            60.796          estimate D2E/DX2                !
 ! D75   D(8,5,6,28)           177.5488         estimate D2E/DX2                !
 ! D76   D(26,5,6,1)           179.4417         estimate D2E/DX2                !
 ! D77   D(26,5,6,27)          -59.1503         estimate D2E/DX2                !
 ! D78   D(26,5,6,28)           57.6025         estimate D2E/DX2                !
 ! D79   D(4,5,8,9)            -59.815          estimate D2E/DX2                !
 ! D80   D(4,5,8,31)           178.7849         estimate D2E/DX2                !
 ! D81   D(4,5,8,32)            62.0099         estimate D2E/DX2                !
 ! D82   D(6,5,8,9)             60.6144         estimate D2E/DX2                !
 ! D83   D(6,5,8,31)           -60.7857         estimate D2E/DX2                !
 ! D84   D(6,5,8,32)          -177.5607         estimate D2E/DX2                !
 ! D85   D(26,5,8,9)          -179.4441         estimate D2E/DX2                !
 ! D86   D(26,5,8,31)           59.1558         estimate D2E/DX2                !
 ! D87   D(26,5,8,32)          -57.6191         estimate D2E/DX2                !
 ! D88   D(1,7,9,8)             58.9485         estimate D2E/DX2                !
 ! D89   D(1,7,9,10)           -58.9702         estimate D2E/DX2                !
 ! D90   D(1,7,9,11)          -179.9823         estimate D2E/DX2                !
 ! D91   D(29,7,9,8)           -62.5937         estimate D2E/DX2                !
 ! D92   D(29,7,9,10)          179.4876         estimate D2E/DX2                !
 ! D93   D(29,7,9,11)           58.4755         estimate D2E/DX2                !
 ! D94   D(30,7,9,8)          -179.5274         estimate D2E/DX2                !
 ! D95   D(30,7,9,10)           62.554          estimate D2E/DX2                !
 ! D96   D(30,7,9,11)          -58.4582         estimate D2E/DX2                !
 ! D97   D(5,8,9,7)            -58.3119         estimate D2E/DX2                !
 ! D98   D(5,8,9,10)            58.6252         estimate D2E/DX2                !
 ! D99   D(5,8,9,11)          -179.4257         estimate D2E/DX2                !
 ! D100  D(31,8,9,7)            63.0502         estimate D2E/DX2                !
 ! D101  D(31,8,9,10)          179.9874         estimate D2E/DX2                !
 ! D102  D(31,8,9,11)          -58.0636         estimate D2E/DX2                !
 ! D103  D(32,8,9,7)          -179.1018         estimate D2E/DX2                !
 ! D104  D(32,8,9,10)          -62.1647         estimate D2E/DX2                !
 ! D105  D(32,8,9,11)           59.7844         estimate D2E/DX2                !
 ! D106  D(7,9,10,3)            58.3029         estimate D2E/DX2                !
 ! D107  D(7,9,10,33)          -63.0529         estimate D2E/DX2                !
 ! D108  D(7,9,10,34)          179.1081         estimate D2E/DX2                !
 ! D109  D(8,9,10,3)           -58.6306         estimate D2E/DX2                !
 ! D110  D(8,9,10,33)         -179.9864         estimate D2E/DX2                !
 ! D111  D(8,9,10,34)           62.1747         estimate D2E/DX2                !
 ! D112  D(11,9,10,3)          179.3906         estimate D2E/DX2                !
 ! D113  D(11,9,10,33)          58.0347         estimate D2E/DX2                !
 ! D114  D(11,9,10,34)         -59.8042         estimate D2E/DX2                !
 ! D115  D(7,9,11,12)         -179.8505         estimate D2E/DX2                !
 ! D116  D(7,9,11,15)            0.2599         estimate D2E/DX2                !
 ! D117  D(8,9,11,12)          -60.4518         estimate D2E/DX2                !
 ! D118  D(8,9,11,15)          119.6586         estimate D2E/DX2                !
 ! D119  D(10,9,11,12)          60.7755         estimate D2E/DX2                !
 ! D120  D(10,9,11,15)        -119.1141         estimate D2E/DX2                !
 ! D121  D(9,11,12,13)        -179.9542         estimate D2E/DX2                !
 ! D122  D(9,11,12,35)           0.0347         estimate D2E/DX2                !
 ! D123  D(15,11,12,13)         -0.0467         estimate D2E/DX2                !
 ! D124  D(15,11,12,35)        179.9422         estimate D2E/DX2                !
 ! D125  D(9,11,15,14)         179.7229         estimate D2E/DX2                !
 ! D126  D(9,11,15,40)           0.0082         estimate D2E/DX2                !
 ! D127  D(12,11,15,14)         -0.1781         estimate D2E/DX2                !
 ! D128  D(12,11,15,40)       -179.8928         estimate D2E/DX2                !
 ! D129  D(11,12,13,14)          0.2263         estimate D2E/DX2                !
 ! D130  D(11,12,13,36)       -118.4245         estimate D2E/DX2                !
 ! D131  D(11,12,13,37)        118.9176         estimate D2E/DX2                !
 ! D132  D(35,12,13,14)       -179.7628         estimate D2E/DX2                !
 ! D133  D(35,12,13,36)         61.5864         estimate D2E/DX2                !
 ! D134  D(35,12,13,37)        -61.0716         estimate D2E/DX2                !
 ! D135  D(12,13,14,15)         -0.2847         estimate D2E/DX2                !
 ! D136  D(12,13,14,38)        117.2688         estimate D2E/DX2                !
 ! D137  D(12,13,14,39)       -117.9112         estimate D2E/DX2                !
 ! D138  D(36,13,14,15)        116.8426         estimate D2E/DX2                !
 ! D139  D(36,13,14,38)       -125.6039         estimate D2E/DX2                !
 ! D140  D(36,13,14,39)         -0.7839         estimate D2E/DX2                !
 ! D141  D(37,13,14,15)       -117.479          estimate D2E/DX2                !
 ! D142  D(37,13,14,38)          0.0744         estimate D2E/DX2                !
 ! D143  D(37,13,14,39)        124.8944         estimate D2E/DX2                !
 ! D144  D(13,14,15,11)          0.3108         estimate D2E/DX2                !
 ! D145  D(13,14,15,40)       -179.9724         estimate D2E/DX2                !
 ! D146  D(38,14,15,11)       -119.0711         estimate D2E/DX2                !
 ! D147  D(38,14,15,40)         60.6458         estimate D2E/DX2                !
 ! D148  D(39,14,15,11)        119.737          estimate D2E/DX2                !
 ! D149  D(39,14,15,40)        -60.5462         estimate D2E/DX2                !
 ! D150  D(1,16,17,18)         179.6998         estimate D2E/DX2                !
 ! D151  D(1,16,17,41)           0.0149         estimate D2E/DX2                !
 ! D152  D(20,16,17,18)         -0.1829         estimate D2E/DX2                !
 ! D153  D(20,16,17,41)       -179.8679         estimate D2E/DX2                !
 ! D154  D(1,16,20,19)        -179.9612         estimate D2E/DX2                !
 ! D155  D(1,16,20,46)           0.0322         estimate D2E/DX2                !
 ! D156  D(17,16,20,19)         -0.0702         estimate D2E/DX2                !
 ! D157  D(17,16,20,46)        179.9232         estimate D2E/DX2                !
 ! D158  D(16,17,18,19)          0.3394         estimate D2E/DX2                !
 ! D159  D(16,17,18,42)        119.7264         estimate D2E/DX2                !
 ! D160  D(16,17,18,43)       -119.0095         estimate D2E/DX2                !
 ! D161  D(41,17,18,19)       -179.9755         estimate D2E/DX2                !
 ! D162  D(41,17,18,42)        -60.5886         estimate D2E/DX2                !
 ! D163  D(41,17,18,43)         60.6756         estimate D2E/DX2                !
 ! D164  D(17,18,19,20)         -0.3196         estimate D2E/DX2                !
 ! D165  D(17,18,19,44)       -117.5281         estimate D2E/DX2                !
 ! D166  D(17,18,19,45)        116.8033         estimate D2E/DX2                !
 ! D167  D(42,18,19,20)       -117.8956         estimate D2E/DX2                !
 ! D168  D(42,18,19,44)        124.8959         estimate D2E/DX2                !
 ! D169  D(42,18,19,45)         -0.7726         estimate D2E/DX2                !
 ! D170  D(43,18,19,20)        117.1886         estimate D2E/DX2                !
 ! D171  D(43,18,19,44)         -0.0199         estimate D2E/DX2                !
 ! D172  D(43,18,19,45)       -125.6885         estimate D2E/DX2                !
 ! D173  D(18,19,20,16)          0.265          estimate D2E/DX2                !
 ! D174  D(18,19,20,46)       -179.7285         estimate D2E/DX2                !
 ! D175  D(44,19,20,16)        118.9636         estimate D2E/DX2                !
 ! D176  D(44,19,20,46)        -61.0299         estimate D2E/DX2                !
 ! D177  D(45,19,20,16)       -118.3882         estimate D2E/DX2                !
 ! D178  D(45,19,20,46)         61.6183         estimate D2E/DX2                !
 --------------------------------------------------------------------------------
 Trust Radius=3.00D-01 FncErr=1.00D-07 GrdErr=1.00D-06
 Number of steps in this run=    276 maximum allowed number of steps=    276.
 GradGradGradGradGradGradGradGradGradGradGradGradGradGradGradGradGradGrad

                          Input orientation:                          
 ---------------------------------------------------------------------
 Center     Atomic      Atomic             Coordinates (Angstroms)
 Number     Number       Type             X           Y           Z
 ---------------------------------------------------------------------
      1          6           0        0.206233   -1.974380   -0.333705
      2          6           0        0.939080   -2.341286   -1.639668
      3          6           0        0.043740   -2.037345   -2.852969
      4          6           0       -1.253292   -2.857107   -2.751229
      5          6           0       -1.997513   -2.470373   -1.462311
      6          6           0       -1.108124   -2.775443   -0.244974
      7          6           0       -0.159591   -0.471566   -0.403340
      8          6           0       -2.346014   -0.972709   -1.500833
      9          6           0       -1.059053   -0.132089   -1.617845
     10          6           0       -0.298737   -0.538433   -2.895824
     11          6           0       -1.389820    1.351997   -1.642646
     12          7           0       -2.137885    1.886056   -2.569423
     13          6           0       -2.337104    3.374407   -2.402950
     14          6           0       -1.505917    3.610845   -1.129168
     15          7           0       -1.016483    2.248077   -0.824922
     16          6           0        1.087724   -2.261879    0.872120
     17          7           0        1.506832   -1.447318    1.750721
     18          6           0        2.348290   -2.044567    2.810875
     19          6           0        2.387590   -3.523459    2.386753
     20          7           0        1.530363   -3.459593    1.144128
     21          1           0        1.892396   -1.767690   -1.716606
     22          1           0        1.212498   -3.421748   -1.650729
     23          1           0        0.585783   -2.318213   -3.790491
     24          1           0       -1.020369   -3.947790   -2.748999
     25          1           0       -1.899231   -2.667837   -3.640483
     26          1           0       -2.941276   -3.066508   -1.387609
     27          1           0       -1.649057   -2.518402    0.695801
     28          1           0       -0.903145   -3.870437   -0.208782
     29          1           0       -0.684564   -0.177697    0.536371
     30          1           0        0.777491    0.131522   -0.459400
     31          1           0       -2.905653   -0.688125   -0.579142
     32          1           0       -3.025831   -0.778616   -2.362505
     33          1           0        0.635468    0.063013   -2.992010
     34          1           0       -0.910440   -0.329600   -3.803860
     35          1           0       -2.558721    1.359165   -3.345099
     36          1           0       -3.416448    3.608855   -2.257416
     37          1           0       -1.932951    3.923214   -3.284154
     38          1           0       -0.642487    4.291843   -1.306013
     39          1           0       -2.123471    3.989409   -0.283135
     40          1           0       -0.404790    2.045463    0.001469
     41          1           0        1.269829   -0.426663    1.729684
     42          1           0        3.357455   -1.573437    2.804533
     43          1           0        1.865004   -1.899907    3.803860
     44          1           0        1.926561   -4.197113    3.144844
     45          1           0        3.416448   -3.866928    2.132516
     46          1           0        1.324662   -4.291843    0.577142
 ---------------------------------------------------------------------
                    Distance matrix (angstroms):
                    1          2          3          4          5
     1  C    0.000000
     2  C    1.541825   0.000000
     3  C    2.525284   1.538218   0.000000
     4  C    2.958689   2.511600   1.537743   0.000000
     5  C    2.525125   2.944775   2.507620   1.537770   0.000000
     6  C    1.541788   2.514897   2.945033   2.511784   1.538177
     7  C    1.548266   2.496285   2.914394   3.521302   2.914551
     8  C    2.979849   3.561477   2.944936   2.511670   1.538159
     9  C    2.577596   2.978853   2.524220   2.957704   2.524375
    10  C    2.980166   2.521983   1.538137   2.511639   2.945028
    11  C    3.914779   4.366248   3.873966   4.354785   3.874574
    12  N    5.039473   5.310610   4.498106   4.828370   4.497096
    13  C    6.273744   6.632128   5.929418   6.334644   5.929720
    14  C    5.895673   6.454958   6.105324   6.673028   6.110144
    15  N    4.423287   5.054730   4.858178   5.461652   4.861322
    16  C    1.521084   2.517435   3.875127   4.354688   3.874497
    17  N    2.512804   3.551937   4.866491   5.465651   4.863193
    18  C    3.805485   4.677740   6.114747   6.675973   6.109618
    19  C    3.815607   4.439345   5.929322   6.332370   5.929031
    20  N    2.478542   3.057735   4.495511   4.825508   4.496442
    21  H    2.190498   1.115232   2.186679   3.486062   3.961038
    22  H    2.200453   1.114575   2.174384   2.758630   3.353325
    23  H    3.494517   2.179768   1.118769   2.180062   3.480947
    24  H    3.351499   2.766028   2.189278   1.115279   2.189324
    25  H    3.981035   3.487966   2.189254   1.115273   2.189311
    26  H    3.494320   3.955584   3.480916   2.180045   1.118770
    27  H    2.190421   3.490593   3.961155   3.486168   2.186590
    28  H    2.200308   2.789181   3.353885   2.759253   2.174662
    29  H    2.186006   3.471669   3.933998   4.279136   3.312843
    30  H    2.185625   2.744799   3.312333   4.278839   3.933997
    31  H    3.376170   4.317364   3.961010   3.486078   2.186576
    32  H    3.999015   4.322609   3.353687   2.759189   2.174817
    33  H    3.376655   2.775187   2.186545   3.486042   3.961138
    34  H    3.999279   3.485876   2.175097   2.759324   3.353728
    35  H    5.275034   5.369958   4.307119   4.453513   4.304092
    36  H    6.927986   7.399758   6.648846   6.836063   6.293058
    37  H    6.932739   7.084974   6.294560   6.835108   6.648401
    38  H    6.397754   6.827231   6.551534   7.319100   6.898412
    39  H    6.402879   7.162199   6.900914   7.329630   6.567732
    40  H    4.079807   4.872667   5.001831   5.686167   5.007214
    41  H    2.790025   3.889436   5.009820   5.687862   5.004109
    42  H    4.465366   5.117524   6.572918   7.333027   6.905515
    43  H    4.458308   5.539327   6.902845   7.321830   6.555687
    44  H    4.472178   5.225970   6.647058   6.831600   6.293319
    45  H    4.468721   4.763854   6.291073   6.832070   6.647114
    46  H    2.729681   2.977850   4.299905   4.447737   4.302786
                    6          7          8          9         10
     6  C    0.000000
     7  C    2.496526   0.000000
     8  C    2.521786   2.497215   0.000000
     9  C    2.979010   1.548967   1.541623   0.000000
    10  C    3.561787   2.497260   2.515142   1.541566   0.000000
    11  C    4.366761   2.524822   2.517673   1.520702   2.516872
    12  N    5.309712   3.763502   3.059042   2.478364   3.060580
    13  C    6.632338   4.850929   4.439742   3.813833   4.439390
    14  C    6.459467   4.359530   4.674705   3.801059   4.668497
    15  N    5.057716   2.882439   3.549362   2.509129   3.545198
    16  C    2.516624   2.527412   4.368458   3.917216   4.369204
    17  N    3.547493   2.892929   5.063821   4.434053   5.067202
    18  C    4.671102   4.369780   6.463451   5.906024   6.468509
    19  C    4.439091   4.856624   6.635259   6.278339   6.635688
    20  N    3.059294   3.765489   5.310999   5.040422   5.310367
    21  H    3.490614   2.759575   4.317716   3.375796   2.775372
    22  H    2.789112   3.484563   4.322415   3.997860   3.485340
    23  H    3.955891   3.929183   3.955799   3.493568   2.179546
    24  H    2.766268   4.281027   3.488031   3.980023   3.487983
    25  H    3.488110   4.281244   2.766076   3.350669   2.765946
    26  H    2.179628   3.929412   2.179713   3.493793   3.955868
    27  H    1.115229   2.759739   2.774908   3.375730   4.317802
    28  H    1.114602   3.484688   3.485412   3.998126   4.322934
    29  H    2.745576   1.115801   2.746390   2.187000   3.472601
    30  H    3.471594   1.115787   3.472779   2.187322   2.746501
    31  H    2.774829   2.760192   1.115212   2.190436   3.490764
    32  H    3.485521   3.485389   1.114586   2.200166   2.789114
    33  H    4.317772   2.760273   3.490783   2.190387   1.115226
    34  H    4.322834   3.485321   2.788977   2.199945   1.114595
    35  H    5.367494   4.214421   2.980637   2.730613   2.985005
    36  H    7.080787   5.540266   4.765394   4.467776   5.227589
    37  H    7.401957   5.545988   5.226941   4.470544   4.767363
    38  H    7.161645   4.872173   5.536738   4.454429   5.096786
    39  H    6.840732   4.875610   5.114189   4.461074   5.536890
    40  H    4.878171   2.561138   3.890324   2.791410   3.883564
    41  H    3.882100   2.568083   4.879419   4.088571   4.885511
    42  H    5.539468   4.886121   7.171235   6.414082   6.850770
    43  H    5.098932   4.882589   6.836091   6.408602   7.170854
    44  H    4.766689   5.551697   7.087594   6.936967   7.404563
    45  H    5.226428   5.545007   7.401601   6.931402   7.082774
    46  H    2.982246   4.214127   5.367354   5.272914   5.365166
                   11         12         13         14         15
    11  C    0.000000
    12  N    1.305272   0.000000
    13  C    2.359142   1.510824   0.000000
    14  C    2.319382   2.334227   1.539252   0.000000
    15  N    1.269257   2.105204   2.345811   1.479611   0.000000
    16  C    5.051967   6.281253   7.363644   6.724657   5.258074
    17  N    5.267039   6.561935   7.434908   6.554039   5.163042
    18  C    6.733793   8.032632   8.860145   7.896995   6.554961
    19  C    7.367154   8.620119   9.635587   8.855472   7.430558
    20  N    6.280524   7.471443   8.616416   8.023588   6.552944
    21  H    4.528892   5.506389   6.693347   6.389229   5.038161
    22  H    5.436981   6.343646   7.704105   7.557723   6.147945
    23  H    4.688996   5.156089   6.547859   6.827267   5.675637
    24  H    5.426624   5.942630   7.447692   7.745487   6.487747
    25  H    4.517734   4.684236   6.183198   6.773717   5.733484
    26  H    4.689909   5.154611   6.548384   6.834771   5.680340
    27  H    4.529407   5.504534   6.693345   6.396770   5.043022
    28  H    5.437521   6.343061   7.704439   7.561747   6.150503
    29  H    2.754172   4.002146   4.897748   4.219205   2.801369
    30  H    2.754427   4.003749   4.898407   4.215238   2.798527
    31  H    2.755157   3.343216   4.489286   4.554441   3.500093
    32  H    2.781050   2.816335   4.209938   4.806103   3.944935
    33  H    2.753916   3.345677   4.488709   4.543437   3.492809
    34  H    2.780004   2.817727   4.209226   4.799550   3.940779
    35  H    2.065122   1.027809   2.235612   3.329986   3.085442
    36  H    3.094927   2.167973   1.114060   2.218801   3.108631
    37  H    3.098499   2.168606   1.114024   2.218986   3.113490
    38  H    3.051970   3.101650   2.217360   1.113797   2.132675
    39  H    3.056543   3.106673   2.217540   1.113757   2.133352
    40  H    2.038208   3.104596   3.358744   2.222890   1.047923
    41  H    4.648653   5.953445   6.673587   5.672678   4.348272
    42  H    7.132474   8.428894   9.166627   8.124234   6.848960
    43  H    7.129740   8.424688   9.165184   8.128115   6.850866
    44  H    8.044319   9.283184  10.309451   9.540089   8.121639
    45  H    8.036743   9.276620  10.301007   9.528135   8.111141
    46  H    6.644456   7.749615   9.003381   8.565988   7.086416
                   16         17         18         19         20
    16  C    0.000000
    17  N    1.269291   0.000000
    18  C    2.322719   1.479420   0.000000
    19  C    2.361218   2.343210   1.539008   0.000000
    20  N    1.305541   2.101847   2.334384   1.510971   0.000000
    21  H    2.755580   3.503378   4.558792   4.490601   3.343262
    22  H    2.779502   3.943966   4.805472   4.206239   2.813129
    23  H    4.689889   5.684349   6.838081   6.546562   5.152227
    24  H    4.516509   5.734683   6.773649   6.178203   4.679851
    25  H    5.426812   6.492766   7.749188   7.445569   5.939823
    26  H    4.688992   5.679486   6.830164   6.546100   5.153617
    27  H    2.754426   3.495671   4.547179   4.490432   3.345975
    28  H    2.778375   3.939435   4.798329   4.205488   2.814448
    29  H    2.756365   2.808701   4.225728   4.904709   4.005760
    30  H    2.756367   2.812349   4.230540   4.904273   4.004276
    31  H    4.530996   5.047243   6.398130   6.697318   5.507171
    32  H    5.439136   6.157177   7.566219   7.706798   6.343738
    33  H    4.532236   5.053105   6.406959   6.698045   5.506108
    34  H    5.439775   6.160022   7.570677   7.707232   6.343261
    35  H    6.647816   7.097355   8.576722   9.008892   7.752045
    36  H    8.034120   8.115955   9.533150  10.301702   9.273856
    37  H    8.040800   8.125558   9.544256  10.309180   9.279551
    38  H    7.119632   6.848442   8.126722   9.159521   8.414822
    39  H    7.122148   6.846435   8.122710   9.160849   8.418742
    40  H    4.640994   4.348988   5.674553   6.670821   5.946102
    41  H    2.033862   1.048022   2.224784   3.357272   3.099906
    42  H    3.059387   2.133361   1.113740   2.217603   3.106895
    43  H    3.054552   2.132722   1.113782   2.217478   3.101416
    44  H    3.100654   3.111450   2.218749   1.114028   2.168818
    45  H    3.096407   3.105948   2.218588   1.114072   2.167983
    46  H    2.064923   3.082498   3.329809   2.234932   1.027826
                   21         22         23         24         25
    21  H    0.000000
    22  H    1.789556   0.000000
    23  H    2.512232   2.487799   0.000000
    24  H    3.781914   2.543347   2.513951   0.000000
    25  H    4.346033   3.769663   2.513968   1.790369   0.000000
    26  H    5.015930   4.177232   4.332890   2.513946   2.514008
    27  H    4.350306   3.809296   5.016114   3.782201   4.346065
    28  H    3.809216   2.599323   4.177912   2.544097   3.770279
    29  H    3.774216   4.348117   4.991726   5.011988   5.012217
    30  H    2.535860   3.772827   4.139338   5.011522   5.012040
    31  H    5.047827   5.057683   5.015982   4.346032   3.782057
    32  H    5.058103   5.045414   4.177710   3.770268   2.543936
    33  H    2.560859   3.778301   2.512027   4.345963   3.781899
    34  H    3.778971   4.324837   2.488663   3.770426   2.543964
    35  H    5.678173   6.320610   4.858949   5.557484   4.091323
    36  H    7.575192   8.439466   7.314254   7.942653   6.603914
    37  H    7.033980   8.155390   6.749504   7.941782   6.600762
    38  H    6.581197   7.940988   7.167574   8.373563   7.447570
    39  H    7.164232   8.241617   7.708936   8.384298   7.459289
    40  H    4.771685   5.935973   5.865310   6.622922   6.141039
    41  H    3.750048   4.516748   5.875220   6.140191   6.626047
    42  H    4.756557   5.278869   7.192440   7.459532   8.388605
    43  H    5.522117   5.700378   7.712688   7.447091   8.377197
    44  H    5.434792   4.910051   7.309365   6.594236   7.938264
    45  H    4.641689   4.400968   6.744864   6.597050   7.938626
    46  H    3.457593   2.394380   4.849472   4.084208   5.551508
                   26         27         28         29         30
    26  H    0.000000
    27  H    2.512140   0.000000
    28  H    2.487954   1.789596   0.000000
    29  H    4.140009   2.536644   3.773508   0.000000
    30  H    4.991813   3.774218   4.347761   1.795768   0.000000
    31  H    2.512289   2.560162   3.778136   2.537349   3.775144
    32  H    2.488377   3.778306   4.324775   3.774403   4.349186
    33  H    5.016084   5.048040   5.058233   3.774904   2.537514
    34  H    4.177706   5.057999   5.046005   4.348758   3.774541
    35  H    4.854348   5.673789   6.318715   4.576048   4.578720
    36  H    6.748542   7.027691   8.151896   5.441177   5.737058
    37  H    7.312306   7.577272   8.441529   5.742156   5.450015
    38  H    7.709502   7.169371   8.239822   4.834557   4.476758
    39  H    7.188507   6.598105   7.954364   4.484062   4.830108
    40  H    5.873291   4.781125   5.940575   2.303657   2.296379
    41  H    5.866831   3.736868   4.509883   2.303396   2.312154
    42  H    7.712155   5.514061   5.701665   4.840513   4.496260
    43  H    7.170261   4.731933   5.258035   4.488072   4.846109
    44  H    6.746646   4.647680   4.400086   5.456905   5.748741
    45  H    7.311129   5.435257   4.913306   5.742508   5.446992
    46  H    4.853856   3.464416   2.399663   4.578739   4.576022
                   31         32         33         34         35
    31  H    0.000000
    32  H    1.789697   0.000000
    33  H    4.350365   3.809163   0.000000
    34  H    3.808966   2.598846   1.789714   0.000000
    35  H    3.458652   2.398706   3.465188   2.404001   0.000000
    36  H    4.641288   4.406078   5.434211   4.917621   2.641942
    37  H    5.433938   4.914370   4.645780   4.404776   2.640009
    38  H    5.518183   5.701408   4.728505   5.260112   4.053446
    39  H    4.751711   5.279403   5.510566   5.702700   4.059957
    40  H    3.750190   4.520360   3.738069   4.514104   4.038557
    41  H    4.778461   5.943280   4.789216   5.948370   6.603060
    42  H    7.173532   8.250840   6.609621   7.964478   9.023263
    43  H    6.590773   7.949945   7.179740   8.249022   9.016569
    44  H    7.037852   8.157402   7.581330   8.443383   9.649318
    45  H    7.578050   8.440725   7.031291   8.153233   9.644634
    46  H    5.676208   6.317521   5.672619   6.315713   7.899274
                   36         37         38         39         40
    36  H    0.000000
    37  H    1.831332   0.000000
    38  H    3.011063   2.390445   0.000000
    39  H    2.390480   3.007789   1.825119   0.000000
    40  H    4.076376   4.081243   2.610025   2.610324   0.000000
    41  H    7.358231   7.370061   5.927622   5.921792   3.449998
    42  H    9.917925   9.760824   8.203514   8.397589   5.925208
    43  H    9.745730   9.928401   8.410474   8.203384   5.930943
    44  H   10.893360  11.052943   9.923332   9.755662   7.367887
    45  H   11.038447  10.892323   9.739814   9.912018   7.355242
    46  H    9.640222   9.644108   9.005310   9.011594   6.594229
                   41         42         43         44         45
    41  H    0.000000
    42  H    2.613154   0.000000
    43  H    2.612831   1.825554   0.000000
    44  H    4.080474   3.007814   2.390658   0.000000
    45  H    4.075006   2.390646   3.011568   1.831282   0.000000
    46  H    4.033730   4.059957   4.052781   2.639005   2.641081
                   46
    46  H    0.000000
 Stoichiometry    C16H26N4(2+)
 Framework group  C1[X(C16H26N4)]
 Deg. of freedom   132
 Full point group                 C1      NOp   1
 Largest Abelian subgroup         C1      NOp   1
 Largest concise Abelian subgroup C1      NOp   1
                         Standard orientation:                         
 ---------------------------------------------------------------------
 Center     Atomic      Atomic             Coordinates (Angstroms)
 Number     Number       Type             X           Y           Z
 ---------------------------------------------------------------------
      1          6           0       -1.286982    0.333489   -0.001168
      2          6           0       -1.258097    1.225370   -1.258522
      3          6           0        0.002249    2.107198   -1.253727
      4          6           0        0.000382    2.997421    0.000128
      5          6           0       -0.000255    2.107021    1.253892
      6          6           0       -1.260503    1.225114    1.256374
      7          6           0        0.002221   -0.523881   -0.000284
      8          6           0        1.261281    1.227000    1.258789
      9          6           0        1.290612    0.335971    0.001089
     10          6           0        1.263885    1.227350   -1.256351
     11          6           0        2.526911   -0.549521    0.001478
     12          7           0        3.737070   -0.060403    0.005472
     13          6           0        4.816719   -1.117259    0.003949
     14          6           0        3.944339   -2.385370   -0.008038
     15          7           0        2.577947   -1.817740   -0.003716
     16          6           0       -2.525055   -0.550180   -0.001654
     17          7           0       -2.585089   -1.818040    0.003621
     18          6           0       -3.952639   -2.382372    0.008320
     19          6           0       -4.818862   -1.110348   -0.004270
     20          7           0       -3.734365   -0.058256   -0.005468
     21          1           0       -1.276348    0.592083   -2.176323
     22          1           0       -2.159635    1.879326   -1.301499
     23          1           0        0.002669    2.754334   -2.166338
     24          1           0       -0.895252    3.662016   -0.000742
     25          1           0        0.895115    3.663217    0.001035
     26          1           0       -0.001698    2.754091    2.166550
     27          1           0       -1.280136    0.591595    2.173982
     28          1           0       -2.162447    1.878656    1.297822
     29          1           0        0.001651   -1.186585    0.897399
     30          1           0        0.002626   -1.186018   -0.898368
     31          1           0        1.280024    0.593376    2.176322
     32          1           0        2.162324    1.881658    1.301743
     33          1           0        1.284509    0.593986   -2.174040
     34          1           0        2.165199    1.881791   -1.297101
     35          1           0        3.952529    0.944562    0.009144
     36          1           0        5.440728   -1.037668    0.923410
     37          1           0        5.450300   -1.026586   -0.907863
     38          1           0        4.096727   -2.996795   -0.926451
     39          1           0        4.096379   -3.014156    0.898586
     40          1           0        1.721749   -2.421924   -0.009261
     41          1           0       -1.728197   -2.421408    0.009441
     42          1           0       -4.106726   -3.010732   -0.898233
     43          1           0       -4.106926   -2.992545    0.927230
     44          1           0       -5.452600   -1.016689    0.907137
     45          1           0       -5.442010   -1.027921   -0.924079
     46          1           0       -3.946724    0.947387   -0.008883
 ---------------------------------------------------------------------
 Rotational constants (GHZ):      0.6081468      0.2310515      0.1869260
 Standard basis: 6-311++G(d,p) (5D, 7F)
 There are   642 symmetry adapted cartesian basis functions of A   symmetry.
 There are   622 symmetry adapted basis functions of A   symmetry.
   622 basis functions,   954 primitive gaussians,   642 cartesian basis functions
    74 alpha electrons       74 beta electrons
       nuclear repulsion energy      1717.3270656535 Hartrees.
 NAtoms=   46 NActive=   46 NUniq=   46 SFac= 1.00D+00 NAtFMM=   60 NAOKFM=F Big=F
 Integral buffers will be    131072 words long.
 Raffenetti 2 integral format.
 Two-electron integral symmetry is turned on.
 One-electron integrals computed using PRISM.
 NBasis=   622 RedAO= T EigKep=  2.27D-06  NBF=   622
 NBsUse=   619 1.00D-06 EigRej=  5.38D-07 NBFU=   619
 ExpMin= 3.60D-02 ExpMax= 6.29D+03 ExpMxC= 9.49D+02 IAcc=3 IRadAn=         5 AccDes= 0.00D+00
 Harris functional with IExCor=  402 and IRadAn=       5 diagonalized for initial guess.
 HarFok:  IExCor=  402 AccDes= 0.00D+00 IRadAn=         5 IDoV= 1 UseB2=F ITyADJ=14
 ICtDFT=  3500011 ScaDFX=  1.000000  1.000000  1.000000  1.000000
 FoFCou: FMM=F IPFlag=           0 FMFlag=      100000 FMFlg1=           0
         NFxFlg=           0 DoJE=T BraDBF=F KetDBF=T FulRan=T
         wScrn=  0.000000 ICntrl=     500 IOpCl=  0 I1Cent=   200000004 NGrid=           0
         NMat0=    1 NMatS0=      1 NMatT0=    0 NMatD0=    1 NMtDS0=    0 NMtDT0=    0
 Petite list used in FoFCou.
 Requested convergence on RMS density matrix=1.00D-08 within 128 cycles.
 Requested convergence on MAX density matrix=1.00D-06.
 Requested convergence on             energy=1.00D-06.
 No special actions if energy rises.
 SCF Done:  E(RB3LYP) =  -844.077524190     A.U. after   13 cycles
            NFock= 13  Conv=0.48D-08     -V/T= 2.0049

 **********************************************************************

            Population analysis using the SCF density.

 **********************************************************************

 Orbital symmetries:
       Occupied  (A) (A) (A) (A) (A) (A) (A) (A) (A) (A) (A) (A)
                 (A) (A) (A) (A) (A) (A) (A) (A) (A) (A) (A) (A)
                 (A) (A) (A) (A) (A) (A) (A) (A) (A) (A) (A) (A)
                 (A) (A) (A) (A) (A) (A) (A) (A) (A) (A) (A) (A)
                 (A) (A) (A) (A) (A) (A) (A) (A) (A) (A) (A) (A)
                 (A) (A) (A) (A) (A) (A) (A) (A) (A) (A) (A) (A)
                 (A) (A)
       Virtual   (A) (A) (A) (A) (A) (A) (A) (A) (A) (A) (A) (A)
                 (A) (A) (A) (A) (A) (A) (A) (A) (A) (A) (A) (A)
                 (A) (A) (A) (A) (A) (A) (A) (A) (A) (A) (A) (A)
                 (A) (A) (A) (A) (A) (A) (A) (A) (A) (A) (A) (A)
                 (A) (A) (A) (A) (A) (A) (A) (A) (A) (A) (A) (A)
                 (A) (A) (A) (A) (A) (A) (A) (A) (A) (A) (A) (A)
                 (A) (A) (A) (A) (A) (A) (A) (A) (A) (A) (A) (A)
                 (A) (A) (A) (A) (A) (A) (A) (A) (A) (A) (A) (A)
                 (A) (A) (A) (A) (A) (A) (A) (A) (A) (A) (A) (A)
                 (A) (A) (A) (A) (A) (A) (A) (A) (A) (A) (A) (A)
                 (A) (A) (A) (A) (A) (A) (A) (A) (A) (A) (A) (A)
                 (A) (A) (A) (A) (A) (A) (A) (A) (A) (A) (A) (A)
                 (A) (A) (A) (A) (A) (A) (A) (A) (A) (A) (A) (A)
                 (A) (A) (A) (A) (A) (A) (A) (A) (A) (A) (A) (A)
                 (A) (A) (A) (A) (A) (A) (A) (A) (A) (A) (A) (A)
                 (A) (A) (A) (A) (A) (A) (A) (A) (A) (A) (A) (A)
                 (A) (A) (A) (A) (A) (A) (A) (A) (A) (A) (A) (A)
                 (A) (A) (A) (A) (A) (A) (A) (A) (A) (A) (A) (A)
                 (A) (A) (A) (A) (A) (A) (A) (A) (A) (A) (A) (A)
                 (A) (A) (A) (A) (A) (A) (A) (A) (A) (A) (A) (A)
                 (A) (A) (A) (A) (A) (A) (A) (A) (A) (A) (A) (A)
                 (A) (A) (A) (A) (A) (A) (A) (A) (A) (A) (A) (A)
                 (A) (A) (A) (A) (A) (A) (A) (A) (A) (A) (A) (A)
                 (A) (A) (A) (A) (A) (A) (A) (A) (A) (A) (A) (A)
                 (A) (A) (A) (A) (A) (A) (A) (A) (A) (A) (A) (A)
                 (A) (A) (A) (A) (A) (A) (A) (A) (A) (A) (A) (A)
                 (A) (A) (A) (A) (A) (A) (A) (A) (A) (A) (A) (A)
                 (A) (A) (A) (A) (A) (A) (A) (A) (A) (A) (A) (A)
                 (A) (A) (A) (A) (A) (A) (A) (A) (A) (A) (A) (A)
                 (A) (A) (A) (A) (A) (A) (A) (A) (A) (A) (A) (A)
                 (A) (A) (A) (A) (A) (A) (A) (A) (A) (A) (A) (A)
                 (A) (A) (A) (A) (A) (A) (A) (A) (A) (A) (A) (A)
                 (A) (A) (A) (A) (A) (A) (A) (A) (A) (A) (A) (A)
                 (A) (A) (A) (A) (A) (A) (A) (A) (A) (A) (A) (A)
                 (A) (A) (A) (A) (A) (A) (A) (A) (A) (A) (A) (A)
                 (A) (A) (A) (A) (A) (A) (A) (A) (A) (A) (A) (A)
                 (A) (A) (A) (A) (A) (A) (A) (A) (A) (A) (A) (A)
                 (A) (A) (A) (A) (A) (A) (A) (A) (A) (A) (A) (A)
                 (A) (A) (A) (A) (A) (A) (A) (A) (A) (A) (A) (A)
                 (A) (A) (A) (A) (A) (A) (A) (A) (A) (A) (A) (A)
                 (A) (A) (A) (A) (A) (A) (A) (A) (A) (A) (A) (A)
                 (A) (A) (A) (A) (A) (A) (A) (A) (A) (A) (A) (A)
                 (A) (A) (A) (A) (A) (A) (A) (A) (A) (A) (A) (A)
                 (A) (A) (A) (A) (A) (A) (A) (A) (A) (A) (A) (A)
                 (A) (A) (A) (A) (A) (A) (A) (A) (A) (A) (A) (A)
                 (A) (A) (A) (A) (A)
 The electronic state is 1-A.
 Alpha  occ. eigenvalues --  -14.62640 -14.62629 -14.61216 -14.61186 -10.53797
 Alpha  occ. eigenvalues --  -10.53796 -10.47144 -10.47132 -10.46909 -10.46905
 Alpha  occ. eigenvalues --  -10.46370 -10.46354 -10.44482 -10.41432 -10.41431
 Alpha  occ. eigenvalues --  -10.41428 -10.41427 -10.40695 -10.40694 -10.38503
 Alpha  occ. eigenvalues --   -1.30456  -1.30420  -1.16347  -1.16290  -1.13548
 Alpha  occ. eigenvalues --   -1.07090  -1.04532  -1.01158  -1.01036  -1.00880
 Alpha  occ. eigenvalues --   -0.92608  -0.91709  -0.90828  -0.90699  -0.89927
 Alpha  occ. eigenvalues --   -0.89023  -0.86976  -0.86078  -0.82978  -0.79908
 Alpha  occ. eigenvalues --   -0.76829  -0.76631  -0.76484  -0.75647  -0.75374
 Alpha  occ. eigenvalues --   -0.75124  -0.70878  -0.70839  -0.70281  -0.69298
 Alpha  occ. eigenvalues --   -0.69142  -0.68809  -0.67955  -0.66713  -0.65722
 Alpha  occ. eigenvalues --   -0.64934  -0.64614  -0.64605  -0.64068  -0.64015
 Alpha  occ. eigenvalues --   -0.63854  -0.63759  -0.63285  -0.63203  -0.58258
 Alpha  occ. eigenvalues --   -0.58066  -0.57802  -0.57588  -0.57059  -0.54331
 Alpha  occ. eigenvalues --   -0.53479  -0.52429  -0.51175  -0.51139
 Alpha virt. eigenvalues --   -0.26297  -0.26070  -0.25159  -0.21932  -0.21639
 Alpha virt. eigenvalues --   -0.20188  -0.19720  -0.19516  -0.19236  -0.17963
 Alpha virt. eigenvalues --   -0.17717  -0.17182  -0.17163  -0.17124  -0.16198
 Alpha virt. eigenvalues --   -0.15975  -0.15952  -0.15575  -0.15119  -0.14516
 Alpha virt. eigenvalues --   -0.13643  -0.13252  -0.12782  -0.12745  -0.12489
 Alpha virt. eigenvalues --   -0.11982  -0.11763  -0.11585  -0.11574  -0.11177
 Alpha virt. eigenvalues --   -0.10779  -0.10474  -0.10274  -0.10153  -0.09658
 Alpha virt. eigenvalues --   -0.09020  -0.08991  -0.08913  -0.08568  -0.08173
 Alpha virt. eigenvalues --   -0.08162  -0.07309  -0.07272  -0.07080  -0.06889
 Alpha virt. eigenvalues --   -0.06825  -0.06754  -0.06020  -0.05872  -0.05667
 Alpha virt. eigenvalues --   -0.05338  -0.05052  -0.04856  -0.04597  -0.04381
 Alpha virt. eigenvalues --   -0.04355  -0.04327  -0.04104  -0.03936  -0.03726
 Alpha virt. eigenvalues --   -0.03439  -0.03339  -0.03289  -0.03088  -0.02790
 Alpha virt. eigenvalues --   -0.02451  -0.02410  -0.02397  -0.02201  -0.02158
 Alpha virt. eigenvalues --   -0.01741  -0.01078  -0.00837  -0.00730  -0.00608
 Alpha virt. eigenvalues --   -0.00567  -0.00358  -0.00076  -0.00004   0.00166
 Alpha virt. eigenvalues --    0.00631   0.00695   0.01062   0.01402   0.01792
 Alpha virt. eigenvalues --    0.01937   0.02380   0.02385   0.02754   0.02838
 Alpha virt. eigenvalues --    0.03154   0.03254   0.03406   0.03963   0.04602
 Alpha virt. eigenvalues --    0.04873   0.04957   0.05081   0.05263   0.05525
 Alpha virt. eigenvalues --    0.05724   0.05961   0.06287   0.06310   0.06501
 Alpha virt. eigenvalues --    0.06719   0.06915   0.07427   0.07993   0.08508
 Alpha virt. eigenvalues --    0.08823   0.09050   0.09319   0.09853   0.10018
 Alpha virt. eigenvalues --    0.10511   0.10583   0.10841   0.10890   0.10956
 Alpha virt. eigenvalues --    0.11024   0.12152   0.12334   0.12418   0.12629
 Alpha virt. eigenvalues --    0.13417   0.14065   0.14160   0.14244   0.14454
 Alpha virt. eigenvalues --    0.14609   0.14661   0.15636   0.15667   0.15880
 Alpha virt. eigenvalues --    0.16292   0.16539   0.16850   0.17189   0.18075
 Alpha virt. eigenvalues --    0.18166   0.18913   0.19028   0.19562   0.20574
 Alpha virt. eigenvalues --    0.22133   0.22353   0.22905   0.23428   0.23959
 Alpha virt. eigenvalues --    0.24362   0.25071   0.25340   0.26321   0.27098
 Alpha virt. eigenvalues --    0.27175   0.27927   0.28070   0.28486   0.28646
 Alpha virt. eigenvalues --    0.30237   0.30942   0.33037   0.33887   0.34023
 Alpha virt. eigenvalues --    0.34289   0.35392   0.36543   0.36841   0.36939
 Alpha virt. eigenvalues --    0.38126   0.38715   0.38894   0.39478   0.39957
 Alpha virt. eigenvalues --    0.40125   0.40201   0.40659   0.40747   0.40784
 Alpha virt. eigenvalues --    0.41804   0.41916   0.42524   0.42574   0.44190
 Alpha virt. eigenvalues --    0.44227   0.44417   0.44762   0.45892   0.46348
 Alpha virt. eigenvalues --    0.46822   0.47080   0.47639   0.47690   0.47822
 Alpha virt. eigenvalues --    0.48000   0.48955   0.49452   0.50317   0.50657
 Alpha virt. eigenvalues --    0.51498   0.51579   0.51735   0.51920   0.53497
 Alpha virt. eigenvalues --    0.53693   0.53749   0.53755   0.54491   0.54690
 Alpha virt. eigenvalues --    0.54888   0.55146   0.55916   0.56244   0.56623
 Alpha virt. eigenvalues --    0.57039   0.57431   0.58687   0.58728   0.59298
 Alpha virt. eigenvalues --    0.60682   0.61318   0.63482   0.64647   0.65870
 Alpha virt. eigenvalues --    0.67000   0.67862   0.68122   0.68148   0.68961
 Alpha virt. eigenvalues --    0.69421   0.69919   0.71659   0.72983   0.74274
 Alpha virt. eigenvalues --    0.76522   0.76954   0.77458   0.77615   0.78791
 Alpha virt. eigenvalues --    0.79287   0.80373   0.80492   0.81622   0.82528
 Alpha virt. eigenvalues --    0.83988   0.84900   0.85469   0.85818   0.86825
 Alpha virt. eigenvalues --    0.89633   0.90701   0.90918   0.91694   0.93205
 Alpha virt. eigenvalues --    0.93751   0.94312   0.94992   0.96025   0.97282
 Alpha virt. eigenvalues --    0.99297   0.99537   0.99622   1.02825   1.02916
 Alpha virt. eigenvalues --    1.03356   1.04667   1.08487   1.09164   1.14466
 Alpha virt. eigenvalues --    1.14833   1.14916   1.18241   1.18859   1.18883
 Alpha virt. eigenvalues --    1.22149   1.22390   1.23120   1.23123   1.23174
 Alpha virt. eigenvalues --    1.23736   1.24829   1.25870   1.27388   1.29897
 Alpha virt. eigenvalues --    1.30027   1.30400   1.30704   1.30918   1.31370
 Alpha virt. eigenvalues --    1.31688   1.32251   1.32627   1.32705   1.35512
 Alpha virt. eigenvalues --    1.35948   1.37565   1.38242   1.38490   1.38509
 Alpha virt. eigenvalues --    1.38645   1.39193   1.39794   1.40079   1.40753
 Alpha virt. eigenvalues --    1.40788   1.40991   1.41303   1.41514   1.41909
 Alpha virt. eigenvalues --    1.42778   1.43631   1.44863   1.45758   1.45968
 Alpha virt. eigenvalues --    1.46763   1.46941   1.47236   1.48449   1.49447
 Alpha virt. eigenvalues --    1.50675   1.52557   1.53388   1.53761   1.54264
 Alpha virt. eigenvalues --    1.54827   1.55160   1.55346   1.55762   1.56379
 Alpha virt. eigenvalues --    1.58648   1.58905   1.59312   1.60433   1.60925
 Alpha virt. eigenvalues --    1.61054   1.61514   1.62090   1.62401   1.62768
 Alpha virt. eigenvalues --    1.63366   1.64196   1.66602   1.67561   1.68183
 Alpha virt. eigenvalues --    1.69675   1.70305   1.71066   1.71402   1.71728
 Alpha virt. eigenvalues --    1.73834   1.75873   1.76215   1.76846   1.77095
 Alpha virt. eigenvalues --    1.77969   1.80831   1.80946   1.81134   1.82118
 Alpha virt. eigenvalues --    1.83265   1.86137   1.86567   1.87078   1.87293
 Alpha virt. eigenvalues --    1.87320   1.88349   1.89023   1.89897   1.91965
 Alpha virt. eigenvalues --    1.93705   1.95409   1.95939   1.99121   1.99166
 Alpha virt. eigenvalues --    2.00120   2.00563   2.00724   2.02226   2.02527
 Alpha virt. eigenvalues --    2.05599   2.06577   2.07428   2.07672   2.07768
 Alpha virt. eigenvalues --    2.08213   2.08940   2.09259   2.10616   2.12172
 Alpha virt. eigenvalues --    2.13295   2.15361   2.15786   2.16453   2.16541
 Alpha virt. eigenvalues --    2.17835   2.18503   2.19438   2.19666   2.20318
 Alpha virt. eigenvalues --    2.21335   2.23830   2.26266   2.28110   2.30215
 Alpha virt. eigenvalues --    2.30903   2.30966   2.31159   2.31969   2.33844
 Alpha virt. eigenvalues --    2.33965   2.34183   2.35068   2.35872   2.36033
 Alpha virt. eigenvalues --    2.36162   2.37759   2.38899   2.40546   2.41002
 Alpha virt. eigenvalues --    2.43448   2.43977   2.44423   2.44831   2.45293
 Alpha virt. eigenvalues --    2.45847   2.46167   2.46645   2.52520   2.52618
 Alpha virt. eigenvalues --    2.53377   2.53658   2.54914   2.56412   2.59904
 Alpha virt. eigenvalues --    2.60382   2.62749   2.63642   2.64704   2.64768
 Alpha virt. eigenvalues --    2.65705   2.67059   2.67812   2.69871   2.70008
 Alpha virt. eigenvalues --    2.70741   2.72096   2.72290   2.73001   2.74468
 Alpha virt. eigenvalues --    2.74716   2.75183   2.77385   2.77905   2.78768
 Alpha virt. eigenvalues --    2.78932   2.80600   2.83379   2.84078   2.86361
 Alpha virt. eigenvalues --    2.87119   2.87823   2.88827   2.88924   2.89103
 Alpha virt. eigenvalues --    2.89540   2.94843   2.95201   2.95286   2.97548
 Alpha virt. eigenvalues --    2.99575   3.00953   3.05937   3.07367   3.11017
 Alpha virt. eigenvalues --    3.12706   3.14823   3.25199   3.25830   3.27737
 Alpha virt. eigenvalues --    3.28500   3.31263   3.31322   3.31325   3.32199
 Alpha virt. eigenvalues --    3.39425   3.40702   3.44498   3.46093   3.48089
 Alpha virt. eigenvalues --    3.50905   3.51076   3.52056   3.54711   3.56042
 Alpha virt. eigenvalues --    3.60398   3.60800   3.64106   3.64767   3.71575
 Alpha virt. eigenvalues --    3.71873   3.73291   3.73432   3.80124   3.83293
 Alpha virt. eigenvalues --    3.88413   3.90045   3.92169   3.95686   3.95755
 Alpha virt. eigenvalues --    3.99796   4.06575   4.07190   4.08531   4.08966
 Alpha virt. eigenvalues --    4.09432   4.09459   4.43507   4.45292   4.56313
 Alpha virt. eigenvalues --    4.56679   4.62066   4.64336   4.95286   4.95335
 Alpha virt. eigenvalues --   23.53744  23.55758  23.55806  23.60324  23.61024
 Alpha virt. eigenvalues --   23.65908  23.66103  23.66933  23.69169  23.70292
 Alpha virt. eigenvalues --   23.73141  23.74334  23.77042  23.77086  23.77530
 Alpha virt. eigenvalues --   23.77827  35.31025  35.31337  35.50433  35.50769
          Condensed to atoms (all electrons):
               1          2          3          4          5          6
     1  C   11.830188  -0.054542  -0.211795  -0.072015  -0.201554  -0.054906
     2  C   -0.054542   9.968534  -0.811146  -0.044509   0.772645  -0.927682
     3  C   -0.211795  -0.811146   7.112729  -0.173188  -0.310947   0.770212
     4  C   -0.072015  -0.044509  -0.173188   6.356717  -0.173936  -0.042369
     5  C   -0.201554   0.772645  -0.310947  -0.173936   7.113466  -0.815781
     6  C   -0.054906  -0.927682   0.770212  -0.042369  -0.815781   9.984642
     7  C   -0.062987  -0.328908  -0.125855   0.209447  -0.125806  -0.335819
     8  C   -0.694902  -0.900897   0.763750  -0.037341  -0.824236  -1.006534
     9  C   -3.795404  -0.683736  -0.222541  -0.062457  -0.231935  -0.689554
    10  C   -0.702406  -1.004593  -0.827179  -0.036511   0.762141  -0.901912
    11  C   -1.080305  -0.224421  -0.131611  -0.082439  -0.131435  -0.229102
    12  N   -0.069604   0.007796   0.004832   0.025027   0.005408   0.007537
    13  C    0.031033   0.006882  -0.007799   0.017284  -0.007808   0.006229
    14  C   -0.023386  -0.010303  -0.005559  -0.009184  -0.005842  -0.009370
    15  N   -0.138110  -0.030578  -0.017010   0.000889  -0.017394  -0.030536
    16  C    1.075573   0.225046  -0.125490  -0.086483  -0.125583   0.234255
    17  N    0.092350   0.042138  -0.017049   0.001063  -0.016620   0.040581
    18  C    0.033186   0.011508  -0.005782  -0.009059  -0.005459   0.010589
    19  C    0.224357  -0.060752  -0.007882   0.017244  -0.007920  -0.060150
    20  N   -0.056922  -0.016358   0.005900   0.024819   0.005200  -0.013222
    21  H    0.027055   0.384223  -0.010072  -0.017739   0.015353   0.058566
    22  H    0.063915   0.444223  -0.034828  -0.005479   0.000081  -0.098306
    23  H   -0.035404   0.023981   0.378892  -0.073916   0.022993   0.009779
    24  H    0.063419  -0.024962  -0.099302   0.538036  -0.099855  -0.023660
    25  H   -0.006768  -0.008538  -0.099961   0.538047  -0.099479  -0.008810
    26  H   -0.035702   0.010102   0.023006  -0.073960   0.378950   0.023297
    27  H    0.026524   0.058004   0.015797  -0.017520  -0.008733   0.384692
    28  H    0.064920  -0.098813  -0.000705  -0.005875  -0.036929   0.445346
    29  H    0.011032   0.044289  -0.018361   0.011511  -0.000646  -0.112791
    30  H    0.008992  -0.109729  -0.000682   0.011569  -0.018484   0.042649
    31  H   -0.048644  -0.032122   0.015158  -0.017528  -0.010232  -0.006062
    32  H   -0.041638   0.021136  -0.000110  -0.005348  -0.035105  -0.035096
    33  H   -0.049683  -0.006591  -0.008986  -0.017332   0.015616  -0.032424
    34  H   -0.041380  -0.033897  -0.036956  -0.005850  -0.000819   0.021608
    35  H    0.010381   0.006073   0.000406   0.003145   0.000292   0.005864
    36  H    0.001045   0.000606  -0.000117   0.000274  -0.000053  -0.000199
    37  H    0.000993  -0.000193   0.000040   0.000297  -0.000053   0.000613
    38  H    0.000867  -0.000585   0.000242  -0.000140   0.000355   0.000471
    39  H    0.000758   0.000473   0.000402  -0.000111   0.000296  -0.000556
    40  H    0.012116   0.000498   0.004699  -0.003143   0.004732   0.000959
    41  H   -0.036349   0.008715   0.004581  -0.003071   0.004560   0.008161
    42  H   -0.011494   0.004785   0.000264  -0.000109   0.000421  -0.002572
    43  H   -0.011717  -0.002583   0.000371  -0.000141   0.000207   0.004824
    44  H    0.001510  -0.001936  -0.000075   0.000305   0.000067  -0.001131
    45  H    0.002250  -0.001337  -0.000035   0.000282  -0.000147  -0.001997
    46  H    0.052230  -0.037183   0.000326   0.003167   0.000440  -0.037598
               7          8          9         10         11         12
     1  C   -0.062987  -0.694902  -3.795404  -0.702406  -1.080305  -0.069604
     2  C   -0.328908  -0.900897  -0.683736  -1.004593  -0.224421   0.007796
     3  C   -0.125855   0.763750  -0.222541  -0.827179  -0.131611   0.004832
     4  C    0.209447  -0.037341  -0.062457  -0.036511  -0.082439   0.025027
     5  C   -0.125806  -0.824236  -0.231935   0.762141  -0.131435   0.005408
     6  C   -0.335819  -1.006534  -0.689554  -0.901912  -0.229102   0.007537
     7  C   10.778259  -0.347740  -0.100309  -0.353113  -1.222089  -0.055314
     8  C   -0.347740   9.987979  -0.049082  -0.910426   0.228164  -0.016573
     9  C   -0.100309  -0.049082  11.849610  -0.046379   1.072677  -0.056548
    10  C   -0.353113  -0.910426  -0.046379   9.997063   0.237222  -0.013286
    11  C   -1.222089   0.228164   1.072677   0.237222   7.075788   0.455686
    12  N   -0.055314  -0.016573  -0.056548  -0.013286   0.455686   6.515708
    13  C   -0.210254  -0.062419   0.226855  -0.061569  -0.101494   0.239845
    14  C   -0.006587   0.013109   0.032536   0.012001  -0.017555  -0.110900
    15  N    0.082593   0.044437   0.096053   0.042903   0.295321  -0.133586
    16  C   -1.206971  -0.228383  -1.083568  -0.233708  -0.510600  -0.010563
    17  N    0.085830  -0.029862  -0.133428  -0.029801  -0.004264  -0.000339
    18  C   -0.006185  -0.010141  -0.023160  -0.009149   0.011548   0.000032
    19  C   -0.208144   0.006863   0.031103   0.006113  -0.020989   0.000047
    20  N   -0.056401   0.007556  -0.069729   0.007272  -0.010628   0.000109
    21  H   -0.042451  -0.032534  -0.049341  -0.006208  -0.020172   0.000260
    22  H    0.012590   0.020754  -0.041394  -0.035634   0.001803  -0.000462
    23  H   -0.008994   0.010459  -0.035966   0.023812   0.002151  -0.001453
    24  H    0.011182  -0.008900  -0.006934  -0.009212   0.003893   0.000532
    25  H    0.011245  -0.025172   0.063273  -0.023829  -0.014803   0.002569
    26  H   -0.009003   0.024509  -0.035722   0.010157   0.002266  -0.001479
    27  H   -0.042677  -0.006406  -0.050192  -0.032787  -0.019966   0.000245
    28  H    0.013171  -0.034804  -0.041067   0.021231   0.001643  -0.000449
    29  H    0.368183  -0.106590   0.011888   0.042567   0.003744  -0.007386
    30  H    0.368350   0.044235   0.014291  -0.109662   0.004188  -0.007360
    31  H   -0.042595   0.383713   0.026278   0.059071   0.021141  -0.013303
    32  H    0.012270   0.444450   0.065177  -0.099554  -0.020227   0.034818
    33  H   -0.043080   0.058698   0.026082   0.384439   0.021060  -0.013356
    34  H    0.012977  -0.100189   0.066370   0.445011  -0.020287   0.035016
    35  H    0.019403  -0.037061   0.052172  -0.037407  -0.019327   0.322252
    36  H    0.009243  -0.001393   0.002140  -0.002005   0.001725  -0.049793
    37  H    0.009317  -0.001946   0.001455  -0.001196   0.001645  -0.049838
    38  H    0.009596  -0.002542  -0.011764   0.004774   0.004816   0.010504
    39  H    0.009273   0.004735  -0.011555  -0.002532   0.005004   0.010654
    40  H    0.046410   0.008558  -0.038016   0.007995  -0.080132   0.005623
    41  H    0.045082   0.000215   0.010830   0.000722   0.025634   0.000627
    42  H    0.009098   0.000462   0.000740  -0.000542  -0.000038  -0.000005
    43  H    0.009446  -0.000572   0.000858   0.000460  -0.000031  -0.000005
    44  H    0.009200  -0.000202   0.000984   0.000619  -0.000018   0.000000
    45  H    0.009104   0.000613   0.001035  -0.000209  -0.000034   0.000000
    46  H    0.019779   0.006317   0.010462   0.006054  -0.001426   0.000015
              13         14         15         16         17         18
     1  C    0.031033  -0.023386  -0.138110   1.075573   0.092350   0.033186
[...]
 ---------------------------------------------------------------------
      1          6           0       -1.276216    0.322163   -0.022291
      2          6           0       -1.235075    1.224694   -1.281314
      3          6           0        0.024994    2.112465   -1.252287
      4          6           0       -0.000295    3.003728    0.000678
      5          6           0       -0.025370    2.111672    1.253079
      6          6           0       -1.285624    1.227254    1.250200
      7          6           0        0.000172   -0.572019   -0.000472
      8          6           0        1.234942    1.224208    1.281518
      9          6           0        1.276360    0.322549    0.021898
     10          6           0        1.285479    1.228382   -1.249964
     11          6           0        2.520854   -0.541440   -0.001718
     12          7           0        3.532489   -0.431237    0.839920
     13          6           0        4.638334   -1.367558    0.533929
     14          6           0        4.115020   -2.083686   -0.740491
     15          7           0        2.770497   -1.481754   -0.903853
     16          6           0       -2.520597   -0.541946    0.001172
     17          7           0       -2.768968   -1.484313    0.901575
     18          6           0       -4.114805   -2.083942    0.740361
     19          6           0       -4.638489   -1.367551   -0.533689
     20          7           0       -3.533583   -0.429727   -0.838563
     21          1           0       -1.242964    0.613765   -2.191082
     22          1           0       -2.112926    1.878798   -1.307326
     23          1           0        0.037321    2.732593   -2.151683
     24          1           0       -0.876683    3.658175   -0.016571
     25          1           0        0.875967    3.658334    0.018342
     26          1           0       -0.037846    2.731215    2.152879
     27          1           0       -1.317185    0.612485    2.155400
     28          1           0       -2.183472    1.851871    1.252993
     29          1           0        0.006117   -1.223612    0.878711
     30          1           0       -0.005414   -1.223156   -0.879984
     31          1           0        1.242790    0.612688    2.190907
     32          1           0        2.112693    1.878409    1.308066
     33          1           0        1.317132    0.614267   -2.155606
     34          1           0        2.183148    1.853262   -1.252466
     35          1           0        3.534486    0.193927    1.631898
     36          1           0        4.789119   -2.052110    1.368950
     37          1           0        5.559910   -0.813055    0.357634
     38          1           0        4.727336   -1.876035   -1.618546
     39          1           0        4.032072   -3.162641   -0.611974
     40          1           0        2.175554   -1.676615   -1.694172
     41          1           0       -2.173287   -1.680070    1.691115
     42          1           0       -4.034157   -3.163109    0.612358
     43          1           0       -4.725506   -1.874576    1.619171
     44          1           0       -5.560888   -0.814454   -0.357411
     45          1           0       -4.787929   -2.051703   -1.369310
     46          1           0       -3.536522    0.196733   -1.629512
 ---------------------------------------------------------------------
 Rotational constants (GHZ):      0.5909960      0.2258400      0.1926624
 Standard basis: 6-311++G(d,p) (5D, 7F)
 There are   642 symmetry adapted cartesian basis functions of A   symmetry.
 There are   622 symmetry adapted basis functions of A   symmetry.
   622 basis functions,   954 primitive gaussians,   642 cartesian basis functions
    74 alpha electrons       74 beta electrons
       nuclear repulsion energy      1714.1417041031 Hartrees.
 NAtoms=   46 NActive=   46 NUniq=   46 SFac= 1.00D+00 NAtFMM=   60 NAOKFM=F Big=F
 Integral buffers will be    131072 words long.
 Raffenetti 2 integral format.
 Two-electron integral symmetry is turned on.
 One-electron integrals computed using PRISM.
 NBasis=   622 RedAO= T EigKep=  1.08D-06  NBF=   622
 NBsUse=   620 1.00D-06 EigRej=  2.28D-07 NBFU=   620
 Lowest energy guess from the checkpoint file:  "Anth_391.chk"
 B after Tr=     0.000000    0.000000    0.000000
         Rot=    0.999998   -0.000019    0.001839    0.000000 Ang=  -0.21 deg.
 B after Tr=     0.000000    0.000000    0.000000
         Rot=    0.999803   -0.000005   -0.019823   -0.000008 Ang=  -2.27 deg.
 Operation on file out of range.
 FileIO: IOper= 1 IFilNo(1)=  -526 Len=      385640 IPos=           0 Q=       6774195576


 dumping /fiocom/, unit = 1 NFiles =    83 SizExt =    524288 WInBlk =       512
                   defal = T LstWrd =    32648192 FType=2 FMxFil=10000

 Number              0             0             0             0             0             0
 Base          6563033       6750720       3079168       3274240        529408        183808
 End           6563328       6757376       3080192       3279360        530432        184832
 End1          6563328       6757376       3080192       3279360        530432        184832
 Wr Pntr       6563033       6748672       3079168       3274240        529408        183808
 Rd Pntr       6563033       6748672       3079168       3274240        529408        183808
 Length            295          6656          1024          5120          1024          1024

 Number              0             0             0             0             0             0
 Base           517120       3666432       6364160       4239360       6564352       2081792
 End            519168       3851264       6369280       4624384       6746624       2466816
 End1           519168       3851264       6369280       4624384       6746624       2466816
 Wr Pntr        517120       3665408       6364160       4239360       6743040       2081792
 Rd Pntr        517120       3665408       6364160       4239360       6743040       2081792
 Length           2048        184832          5120        385024        182272        385024

 Number              0             0           501           502           503           508
 Base          8965120      24475742         43520        512000        180224        530432
 End          24083920      32648192         44520        517038        180639        530462
 End1         24083920      32648192         44544        517120        180736        530944
 Wr Pntr       8964712      24475742         43520        512000        180224        530432
 Rd Pntr       8625100      24475742         43520        512000        180224        530432
 Length       15118800       8172450          1000          5038           415            30

 Number            511           514           515           516           517           518
 Base           364544       1887744       1112576        530944       3048960       2467328
 End            419492       2081497       1887588       1112203       3077572       3048587
 End1           419840       2081792       1887744       1112576       3077632       3048960
 Wr Pntr        364544       1887744       1112576        530944       3048960       2467328
 Rd Pntr        364544       2081497       1112576        530944       3048960       2467328
 Length          54948        193753        775012        581259         28612        581259

 Number            520           521           522           523           524           526
 Base           528896        506368       6748672       3077632       3280384       7035904
 End            528906        506403       6749292       3078870       3666024       7420922
 End1           529408        506880       6749696       3079168       3666432       7420928
 Wr Pntr        528896        506368       6749291       3077632       3666024       7035904
 Rd Pntr        528896        506368       6748672       3077632       3666024       7035904
 Length             10            35           620          1238        385640        385018

 Number            528           530           532           534           536           538
 Base          3851264       3080192       4045312       4624384       4818432       5012480
 End           4045017       3273945       4239065       4818137       5012185       5206233
 End1          4045312       3274240       4239360       4818432       5012480       5206528
 Wr Pntr       3851264       3080192       4045312       4624384       5012185       5206233
 Rd Pntr       3851264       3080192       4045312       4624384       4818432       5012480
 Length         193753        193753        193753        193753        193753        193753

 Number            551           552           559           561           562           563
 Base           504320        503296         75264        504832        496640       3279360
 End            504358        503328         75266        504833        503194       3279982
 End1           504832        503808         75776        505344        503296       3280384
 Wr Pntr        504320        503296         75264        504832        496640       3279360
 Rd Pntr        504358        503296         75264        504832        503194       3279360
 Length             38            32             2             1          6554           622

 Number            565           571           575           577           579           580
 Base           519168       6369280        186368         76288        503808         72192
 End            519418       6563033        364051         76340        503854         73456
 End1           519680       6563033        364544         76800        504320         73728
 Wr Pntr        519168       6369280        186368         76288        503808         72192
 Rd Pntr        519168       6369280        186368         76340        503808         72192
 Length            250        193753        177683            52            46          1264

 Number            581           582           583           584           598           603
 Base            73728       6746624         75776        519680         76800       6563328
 End             75064       6748490         75823        519956         76802       6563329
 End1            75264       6748672         76288        520192         77312       6563840
 Wr Pntr         73728       6746624         75776        519680         76800       6563328
 Rd Pntr         73728       6746624         75776        519680         76800       6563328
 Length           1336          1866            47           276             2             1

 Number            605           606           619           634           665           670
 Base          6563840       6749696        520192      24083920        180736        506880
 End           6563841       6750316        526869      24475742        183710        511528
 End1          6564352       6750720        527360      24475742        183808        512000
 Wr Pntr       6563840       6750316        520192      24083920        180736        506880
 Rd Pntr       6563840       6749696        520192      24083920        180736        511528
 Length              1           620          6677        391822          2974          4648

 Number            672           674           685           695           698           701
 Base            41984        184832       7420928        527360        505856        419840
 End             42347        185278       7806568        528814        506132        496577
 End1            42496        185344       7806976        528896        506368        496640
 Wr Pntr         41984        184832       7420928        527360        505856        419840
 Rd Pntr         41984        184832       7806568        527360        505856        419840
 Length            363           446        385640          1454           276         76737

 Number            729           742           761           783           989           991
 Base          5206528       2466816        505344       6757376         44544         65536
 End           6364070       2466848        505345       7035417         64544         72098
 End1          6364160       2467328        505856       7035904         65024         72192
 Wr Pntr       5206528       2466816        505344       6757376         44544         65536
 Rd Pntr       5206528       2466816        505344       6757376         44544         72098
 Length        1157542            32             1        278041         20000          6562

 Number            992           993           994           995           996           997
 Base            65024         43008         40448         42496         41472        185344
 End             65033         43208         40478         42516         41672        186246
 End1            65536         43520         40960         43008         41984        186368
 Wr Pntr         65024         43008         40448         42496         41472        185344
 Rd Pntr         65033         43208         40478         42516         41672        186246
 Length              9           200            30            20           200           902

 Number            998           999          2551          2556          9999
 Base            40960         77312       7806976       8193024       8579072
 End             41160        179816       8192616       8578664       8964712
 End1            41472        180224       8193024       8579072       8965120
 Wr Pntr         40960         77312       8192616       8578664       8964712
 Rd Pntr         41160         79816       8192616       8578664       8964712
 Length            200        102504        385640        385640        385640


 dumping /fiocom/, unit = 2 NFiles =    51 SizExt =         0 WInBlk =       512
                   defal = F LstWrd =     4098048 FType=2 FMxFil=10000

 Number              0             0             0             0             0           501
 Base          1875042        432500       1482107       3311301       4096191        821244
 End           2067603        433738       1867125       3703745       4098048        822244
 End1          2067603        433738       1867125       3703745       4098048        822244
 Wr Pntr       1875042        432500       1482107       3311301       4096191        821244
 Rd Pntr       1875042        432500       1482107       3311301       4096191        821244
 Length         192561          1238        385018        392444          1857          1000

 Number            502           503           508           511           520           521
 Base           822244       2068412         40448        831930        919291       1097054
 End            827282       2068827         40478        886878        919301       1097089
 End1           827282       2068827         40478        886878        919301       1097089
 Wr Pntr        822244       2068412         40448        831930        919291       1097054
 Rd Pntr        822244       2068412         40448        831930        919291       1097054
 Length           5038           415            30         54948            10            35

 Number            522           524           526           528           530           532
 Base          1873804       2926283       1097089       2147150       2340903       2534656
 End           1875042       3311301       1482107       2340903       2534656       2728409
 End1          1875042       3311301       1482107       2340903       2534656       2728409
 Wr Pntr       1873804       2926283       1097089       2147150       2340903       2534656
 Rd Pntr       1875042       2926283       1097089       2147150       2340903       2534656
 Length           1238        385018        385018        193753        193753        193753

 Number            534           536           538           551           552           561
 Base          2728409        433738        627491        919333        919301        912684
 End           2922162        627491        821244        919371        919333        912685
 End1          2922162        627491        821244        919371        919333        912685
 Wr Pntr       2728409        433738        627491        919333        919301        912684
 Rd Pntr       2728409        627491        821244        919333        919301        912684
 Length         193753        193753        193753            38            32             1

 Number            562           563           565           575           577           579
 Base           912685       2922162       2922784        919371        919239       2145840
 End            919239       2922784       2923034       1097054        919291       2145886
 End1           919239       2922784       2923034       1097054        919291       2145886
 Wr Pntr        912685       2922162       2922784        919371        919239       2145840
 Rd Pntr        912685       2922162       2922784        919371        919239       2145840
 Length           6554           622           250        177683            52            46

 Number            580           581           582           583           584           603
 Base          2145886       2923034       2924370       2926236        889852       1873803
 End           2147150       2924370       2926236       2926283        890128       1873804
 End1          2147150       2924370       2926236       2926283        890128       1873804
 Wr Pntr       2145886       2923034       2924370       2926236        889852       1873803
 Rd Pntr       2145886       2923034       2924370       2926236        889852       1873803
 Length           1264          1336          1866            47           276             1

 Number            605           619           634           665           670           672
 Base          1873802       1867125         40678        886878        827282       2067603
 End           1873803       1873802        432500        889852        831930       2067966
 End1          1873803       1873802        432500        889852        831930       2067966
 Wr Pntr       1873802       1867125         40678        886878        827282       2067603
 Rd Pntr       1873802       1867125        432500        886878        831930       2067603
 Length              1          6677        391822          2974          4648           363

 Number            674           695           698           701           780           989
 Base          2067966        890128       2068827       2069103       3703745        891582
 End           2068412        891582       2069103       2145840       4096191        911582
 End1          2068412        891582       2069103       2145840       4096191        911582
 Wr Pntr       2067966        890128       2068827       2069103       3703745        891582
 Rd Pntr       2067966        890128       2068827       2069103       4096191        891582
 Length            446          1454           276         76737        392446         20000

 Number            993           997           998
 Base           911582        911782         40478
 End            911782        912684         40678
 End1           911782        912684         40678
 Wr Pntr        911582        911782         40478
 Rd Pntr        911582        911782         40678
 Length            200           902           200


 dumping /fiocom/, unit = 3 NFiles =     1 SizExt =    524288 WInBlk =       512
                   defal = T LstWrd =       67072 FType=2 FMxFil=10000

 Number              0
 Base            40448
 End             67072
 End1            67072
 Wr Pntr         40448
 Rd Pntr         40448
 Length          26624
 Error termination in NtrErr:
 NtrErr Called from FileIO.
