 Entering Link 1 = C:\G09W\l1.exe PID=      1672.
  
 Copyright (c) 1988,1990,1992,1993,1995,1998,2003,2009,2013,
            Gaussian, Inc.  All Rights Reserved.
  
 This is part of the Gaussian(R) 09 program.  It is based on
 the Gaussian(R) 03 system (copyright 2003, Gaussian, Inc.),
 the Gaussian(R) 98 system (copyright 1998, Gaussian, Inc.),
 the Gaussian(R) 94 system (copyright 1995, Gaussian, Inc.),
 the Gaussian 92(TM) system (copyright 1992, Gaussian, Inc.),
 the Gaussian 90(TM) system (copyright 1990, Gaussian, Inc.),
 the Gaussian 88(TM) system (copyright 1988, Gaussian, Inc.),
 the Gaussian 86(TM) system (copyright 1986, Carnegie Mellon
 University), and the Gaussian 82(TM) system (copyright 1983,
 Carnegie Mellon University). Gaussian is a federally registered
 trademark of Gaussian, Inc.
  
 This software contains proprietary and confidential information,
 including trade secrets, belonging to Gaussian, Inc.
  
 This software is provided under written license and may be
 used, copied, transmitted, or stored only in accord with that
 written license.
  
 The following legend is applicable only to US Government
 contracts under FAR:
  
                    RESTRICTED RIGHTS LEGEND
  
 Use, reproduction and disclosure by the US Government is
 subject to restrictions as set forth in subparagraphs (a)
 and (c) of the Commercial Computer Software - Restricted
 Rights clause in FAR 52.227-19.
  
 Gaussian, Inc.
 340 Quinnipiac St., Bldg. 40, Wallingford CT 06492
  
  
 ---------------------------------------------------------------
 Warning -- This program may not be used in any manner that
 competes with the business of Gaussian, Inc. or will provide
 assistance to any competitor of Gaussian, Inc.  The licensee
 of this program is prohibited from giving any competitor of
 Gaussian, Inc. access to this program.  By using this program,
 the user acknowledges that Gaussian, Inc. is engaged in the
 business of creating and licensing software in the field of
 computational chemistry and represents and warrants to the
 licensee that it is not a competitor of Gaussian, Inc. and that
 it will not use this program in any manner prohibited above.
 ---------------------------------------------------------------
  

 Cite this work as:
 Gaussian 09, Revision D.01,
 M. J. Frisch, G. W. Trucks, H. B. Schlegel, G. E. Scuseria, 
 M. A. Robb, J. R. Cheeseman, G. Scalmani, V. Barone, B. Mennucci, 
 G. A. Petersson, H. Nakatsuji, M. Caricato, X. Li, H. P. Hratchian, 
 A. F. Izmaylov, J. Bloino, G. Zheng, J. L. Sonnenberg, M. Hada, 
 M. Ehara, K. Toyota, R. Fukuda, J. Hasegawa, M. Ishida, T. Nakajima, 
 Y. Honda, O. Kitao, H. Nakai, T. Vreven, J. A. Montgomery, Jr., 
 J. E. Peralta, F. Ogliaro, M. Bearpark, J. J. Heyd, E. Brothers, 
 K. N. Kudin, V. N. Staroverov, T. Keith, R. Kobayashi, J. Normand, 
 K. Raghavachari, A. Rendell, J. C. Burant, S. S. Iyengar, J. Tomasi, 
 M. Cossi, N. Rega, J. M. Millam, M. Klene, J. E. Knox, J. B. Cross, 
 V. Bakken, C. Adamo, J. Jaramillo, R. Gomperts, R. E. Stratmann, 
 O. Yazyev, A. J. Austin, R. Cammi, C. Pomelli, J. W. Ochterski, 
 R. L. Martin, K. Morokuma, V. G. Zakrzewski, G. A. Voth, 
 P. Salvador, J. J. Dannenberg, S. Dapprich, A. D. Daniels, 
 O. Farkas, J. B. Foresman, J. V. Ortiz, J. Cioslowski, 
 and D. J. Fox, Gaussian, Inc., Wallingford CT, 2013.
 
 ******************************************
 Gaussian 09:  EM64W-G09RevD.01 13-Apr-2013
                04-Sep-2018 
 ******************************************
 %Chk=Anth_901.chk
 %Mem=128GB
 %NProcShared=20
 Will use up to   20 processors via shared memory.
 -------------------------------------
 # RB3LYP/6-311++G** Opt Test prop=EFG
 -------------------------------------
 1/14=-1,18=20,19=15,26=3,38=1/1,3;
 2/9=110,12=2,17=6,18=5,40=1/2;
 3/5=4,6=6,7=1111,11=2,16=1,25=1,30=1,71=1,74=-5,116=1/1,2,3;
 4//1;
 5/5=2,38=5/2;
 6/7=2,8=2,9=2,10=2,14=1,28=1/1,2;
 7//1,2,3,16;
 1/14=-1,18=20,19=15,26=3/3(2);
 2/9=110/2;
 99//99;
 2/9=110/2;
 3/5=4,6=6,7=1111,11=2,16=1,25=1,30=1,71=1,74=-5,116=1/1,2,3;
 4/5=5,16=3,69=1/1;
 5/5=2,38=5/2;
 7//1,2,3,16;
 1/14=-1,18=20,19=15,26=3/3(-5);
 2/9=110/2;
 6/7=2,8=2,9=2,10=2,14=1,19=2,28=1/1,2;
 99/9=1/99;
 ----------------
 C17N7H12SO2Cl2F3
 ----------------
 Symbolic Z-matrix:
 Charge =  0 Multiplicity = 1
 C                    -5.6289    0.68143  -0.26391 
 N                    -4.51244   0.26985   0.15584 
 C                    -3.97969   0.77362   1.19014 
 C                    -4.67788   1.77058   1.80045 
 C                    -5.87113   2.15214   1.28625 
 N                    -6.33182   1.59416   0.24815 
 N                    -6.54359   3.07508   1.83978 
 Cl                   -4.13443   2.67519   3.18933 
 C                    -2.76316   0.28583   1.60348 
 N                    -2.00594  -0.62812   0.91639 
 O                    -2.24091   0.62825   2.63793 
 C                    -2.20871  -1.20124  -0.42199 
 C                    -0.83246  -1.51892  -0.98623 
 C                    -3.06635  -2.47774  -0.38594 
 N                    -0.47282  -0.97272  -2.06892 
 C                     0.70686  -1.35422  -2.30279 
 C                     1.17705  -2.21162  -1.38294 
 S                     0.15896  -2.38993  -0.33783 
 C                     2.4559   -2.67742  -1.3514 
 O                     2.71713  -3.82784  -1.08428 
 N                     3.51105  -1.83517  -1.52204 
 C                     3.6673   -0.49471  -1.54204 
 N                     2.70895   0.30598  -1.33872 
 C                     2.91982   1.55198  -1.35576 
 C                     4.12422   2.10463  -1.57618 
 C                     5.17891   1.29291  -1.79012 
 C                     4.91032  -0.02696  -1.76262 
 C                     6.5875    1.80252  -2.04593 
 Cl                    4.26517   3.82784  -1.57335 
 F                     7.00964   2.53711  -1.02818 
 F                     7.46845   0.83101  -2.22501 
 F                     6.61366   2.56334  -3.12956 
 H                    -6.03034   0.19233  -1.16782 
 H                    -7.46845   3.37052   1.44136 
 H                    -6.1804    3.55101   2.70176 
 H                    -1.17366  -0.9244    1.42673 
 H                    -2.64325  -0.44645  -1.11765 
 H                    -3.17083  -2.91475  -1.40554 
 H                    -4.09218  -2.28548  -0.00196 
 H                    -2.62251  -3.254     0.27743 
 H                     1.24867  -0.99345  -3.18933 
 H                     4.40156  -2.30168  -1.61069 
 H                     2.03147   2.18074  -1.17275 
 H                     5.72373  -0.75265  -1.9266 
 

 GradGradGradGradGradGradGradGradGradGradGradGradGradGradGradGradGradGrad
 Berny optimization.
 Initialization pass.
                           ----------------------------
                           !    Initial Parameters    !
                           ! (Angstroms and Degrees)  !
 --------------------------                            --------------------------
 ! Name  Definition              Value          Derivative Info.                !
 --------------------------------------------------------------------------------
 ! R1    R(1,2)                  1.2618         estimate D2E/DX2                !
 ! R2    R(1,6)                  1.2607         estimate D2E/DX2                !
 ! R3    R(1,33)                 1.1034         estimate D2E/DX2                !
 ! R4    R(2,3)                  1.2678         estimate D2E/DX2                !
 ! R5    R(3,4)                  1.3616         estimate D2E/DX2                !
 ! R6    R(3,9)                  1.3743         estimate D2E/DX2                !
 ! R7    R(4,5)                  1.3542         estimate D2E/DX2                !
 ! R8    R(4,8)                  1.7443         estimate D2E/DX2                !
 ! R9    R(5,6)                  1.2654         estimate D2E/DX2                !
 ! R10   R(5,7)                  1.269          estimate D2E/DX2                !
 ! R11   R(7,34)                 1.0495         estimate D2E/DX2                !
 ! R12   R(7,35)                 1.0495         estimate D2E/DX2                !
 ! R13   R(9,10)                 1.3714         estimate D2E/DX2                !
 ! R14   R(9,11)                 1.2083         estimate D2E/DX2                !
 ! R15   R(10,12)                1.47           estimate D2E/DX2                !
 ! R16   R(10,36)                1.0203         estimate D2E/DX2                !
 ! R17   R(12,13)                1.521          estimate D2E/DX2                !
 ! R18   R(12,14)                1.5383         estimate D2E/DX2                !
 ! R19   R(12,37)                1.1147         estimate D2E/DX2                !
 ! R20   R(13,15)                1.2649         estimate D2E/DX2                !
 ! R21   R(13,18)                1.4704         estimate D2E/DX2                !
 ! R22   R(14,38)                1.1142         estimate D2E/DX2                !
 ! R23   R(14,39)                1.1121         estimate D2E/DX2                !
 ! R24   R(14,40)                1.1134         estimate D2E/DX2                !
 ! R25   R(15,16)                1.2617         estimate D2E/DX2                !
 ! R26   R(16,17)                1.3425         estimate D2E/DX2                !
 ! R27   R(16,41)                1.0998         estimate D2E/DX2                !
 ! R28   R(17,18)                1.4699         estimate D2E/DX2                !
 ! R29   R(17,19)                1.3614         estimate D2E/DX2                !
 ! R30   R(19,20)                1.2096         estimate D2E/DX2                !
 ! R31   R(19,21)                1.3608         estimate D2E/DX2                !
 ! R32   R(21,22)                1.3497         estimate D2E/DX2                !
 ! R33   R(21,42)                1.0092         estimate D2E/DX2                !
 ! R34   R(22,23)                1.2653         estimate D2E/DX2                !
 ! R35   R(22,27)                1.3463         estimate D2E/DX2                !
 ! R36   R(23,24)                1.2638         estimate D2E/DX2                !
 ! R37   R(24,25)                1.3434         estimate D2E/DX2                !
 ! R38   R(24,43)                1.1036         estimate D2E/DX2                !
 ! R39   R(25,26)                1.348          estimate D2E/DX2                !
 ! R40   R(25,29)                1.729          estimate D2E/DX2                !
 ! R41   R(26,27)                1.3472         estimate D2E/DX2                !
 ! R42   R(26,28)                1.5196         estimate D2E/DX2                !
 ! R43   R(27,44)                1.1023         estimate D2E/DX2                !
 ! R44   R(28,30)                1.3242         estimate D2E/DX2                !
 ! R45   R(28,31)                1.3236         estimate D2E/DX2                !
 ! R46   R(28,32)                1.3243         estimate D2E/DX2                !
 ! A1    A(2,1,6)              126.4695         estimate D2E/DX2                !
 ! A2    A(2,1,33)             116.7346         estimate D2E/DX2                !
 ! A3    A(6,1,33)             116.7957         estimate D2E/DX2                !
 ! A4    A(1,2,3)              120.9034         estimate D2E/DX2                !
 ! A5    A(2,3,4)              116.177          estimate D2E/DX2                !
 ! A6    A(2,3,9)              118.444          estimate D2E/DX2                !
 ! A7    A(4,3,9)              125.3788         estimate D2E/DX2                !
 ! A8    A(3,4,5)              119.2056         estimate D2E/DX2                !
 ! A9    A(3,4,8)              125.2311         estimate D2E/DX2                !
 ! A10   A(5,4,8)              115.5145         estimate D2E/DX2                !
 ! A11   A(4,5,6)              120.535          estimate D2E/DX2                !
 ! A12   A(4,5,7)              120.4127         estimate D2E/DX2                !
 ! A13   A(6,5,7)              119.0524         estimate D2E/DX2                !
 ! A14   A(1,6,5)              116.7088         estimate D2E/DX2                !
 ! A15   A(5,7,34)             120.4068         estimate D2E/DX2                !
 ! A16   A(5,7,35)             120.3106         estimate D2E/DX2                !
 ! A17   A(34,7,35)            119.2826         estimate D2E/DX2                !
 ! A18   A(3,9,10)             125.0721         estimate D2E/DX2                !
 ! A19   A(3,9,11)             122.6484         estimate D2E/DX2                !
 ! A20   A(10,9,11)            112.2795         estimate D2E/DX2                !
 ! A21   A(9,10,12)            129.7783         estimate D2E/DX2                !
 ! A22   A(9,10,36)            113.1622         estimate D2E/DX2                !
 ! A23   A(12,10,36)           117.0479         estimate D2E/DX2                !
 ! A24   A(10,12,13)           107.1203         estimate D2E/DX2                !
 ! A25   A(10,12,14)           112.278          estimate D2E/DX2                !
 ! A26   A(10,12,37)           110.9771         estimate D2E/DX2                !
 ! A27   A(13,12,14)           109.8681         estimate D2E/DX2                !
 ! A28   A(13,12,37)           105.2275         estimate D2E/DX2                !
 ! A29   A(14,12,37)           111.0506         estimate D2E/DX2                !
 ! A30   A(12,13,15)           118.9878         estimate D2E/DX2                !
 ! A31   A(12,13,18)           124.7667         estimate D2E/DX2                !
 ! A32   A(15,13,18)           116.2035         estimate D2E/DX2                !
 ! A33   A(12,14,38)           110.8729         estimate D2E/DX2                !
 ! A34   A(12,14,39)           112.2668         estimate D2E/DX2                !
 ! A35   A(12,14,40)           111.7317         estimate D2E/DX2                !
 ! A36   A(38,14,39)           107.2937         estimate D2E/DX2                !
 ! A37   A(38,14,40)           108.0079         estimate D2E/DX2                !
 ! A38   A(39,14,40)           106.4119         estimate D2E/DX2                !
 ! A39   A(13,15,16)           107.0938         estimate D2E/DX2                !
 ! A40   A(15,16,17)           113.1766         estimate D2E/DX2                !
 ! A41   A(15,16,41)           120.7193         estimate D2E/DX2                !
 ! A42   A(17,16,41)           126.1033         estimate D2E/DX2                !
 ! A43   A(16,17,18)           108.7876         estimate D2E/DX2                !
 ! A44   A(16,17,19)           124.2896         estimate D2E/DX2                !
 ! A45   A(18,17,19)           126.3459         estimate D2E/DX2                !
 ! A46   A(13,18,17)            94.6811         estimate D2E/DX2                !
 ! A47   A(17,19,20)           122.2358         estimate D2E/DX2                !
 ! A48   A(17,19,21)           120.9101         estimate D2E/DX2                !
 ! A49   A(20,19,21)           116.6724         estimate D2E/DX2                !
 ! A50   A(19,21,22)           134.9358         estimate D2E/DX2                !
 ! A51   A(19,21,42)           114.1484         estimate D2E/DX2                !
 ! A52   A(22,21,42)           110.8326         estimate D2E/DX2                !
 ! A53   A(21,22,23)           122.5776         estimate D2E/DX2                !
 ! A54   A(21,22,27)           117.0242         estimate D2E/DX2                !
 ! A55   A(23,22,27)           120.3835         estimate D2E/DX2                !
 ! A56   A(22,23,24)           119.6935         estimate D2E/DX2                !
 ! A57   A(23,24,25)           123.876          estimate D2E/DX2                !
 ! A58   A(23,24,43)           115.16           estimate D2E/DX2                !
 ! A59   A(25,24,43)           120.9639         estimate D2E/DX2                !
 ! A60   A(24,25,26)           118.6724         estimate D2E/DX2                !
 ! A61   A(24,25,29)           118.8717         estimate D2E/DX2                !
 ! A62   A(26,25,29)           122.4559         estimate D2E/DX2                !
 ! A63   A(25,26,27)           115.5139         estimate D2E/DX2                !
 ! A64   A(25,26,28)           123.369          estimate D2E/DX2                !
 ! A65   A(27,26,28)           121.1171         estimate D2E/DX2                !
 ! A66   A(22,27,26)           121.8569         estimate D2E/DX2                !
 ! A67   A(22,27,44)           118.4855         estimate D2E/DX2                !
 ! A68   A(26,27,44)           119.6573         estimate D2E/DX2                !
 ! A69   A(26,28,30)           110.6178         estimate D2E/DX2                !
 ! A70   A(26,28,31)           113.176          estimate D2E/DX2                !
 ! A71   A(26,28,32)           110.4087         estimate D2E/DX2                !
 ! A72   A(30,28,31)           107.3962         estimate D2E/DX2                !
 ! A73   A(30,28,32)           107.6915         estimate D2E/DX2                !
 ! A74   A(31,28,32)           107.3266         estimate D2E/DX2                !
 ! D1    D(6,1,2,3)              0.0707         estimate D2E/DX2                !
 ! D2    D(33,1,2,3)          -179.8051         estimate D2E/DX2                !
 ! D3    D(2,1,6,5)             -0.0122         estimate D2E/DX2                !
 ! D4    D(33,1,6,5)           179.8635         estimate D2E/DX2                !
 ! D5    D(1,2,3,4)             -0.2169         estimate D2E/DX2                !
 ! D6    D(1,2,3,9)            179.9243         estimate D2E/DX2                !
 ! D7    D(2,3,4,5)              0.3123         estimate D2E/DX2                !
 ! D8    D(2,3,4,8)           -177.0268         estimate D2E/DX2                !
 ! D9    D(9,3,4,5)           -179.84           estimate D2E/DX2                !
 ! D10   D(9,3,4,8)              2.8209         estimate D2E/DX2                !
 ! D11   D(2,3,9,10)             6.365          estimate D2E/DX2                !
 ! D12   D(2,3,9,11)          -173.5501         estimate D2E/DX2                !
 ! D13   D(4,3,9,10)          -173.4796         estimate D2E/DX2                !
 ! D14   D(4,3,9,11)             6.6053         estimate D2E/DX2                !
 ! D15   D(3,4,5,6)             -0.2705         estimate D2E/DX2                !
 ! D16   D(3,4,5,7)            179.7114         estimate D2E/DX2                !
 ! D17   D(8,4,5,6)            177.3213         estimate D2E/DX2                !
 ! D18   D(8,4,5,7)             -2.6968         estimate D2E/DX2                !
 ! D19   D(4,5,6,1)              0.1158         estimate D2E/DX2                !
 ! D20   D(7,5,6,1)           -179.8664         estimate D2E/DX2                !
 ! D21   D(4,5,7,34)          -179.9825         estimate D2E/DX2                !
 ! D22   D(4,5,7,35)            -0.0061         estimate D2E/DX2                !
 ! D23   D(6,5,7,34)            -0.0003         estimate D2E/DX2                !
 ! D24   D(6,5,7,35)           179.9762         estimate D2E/DX2                !
 ! D25   D(3,9,10,12)            6.2835         estimate D2E/DX2                !
 ! D26   D(3,9,10,36)         -175.0069         estimate D2E/DX2                !
 ! D27   D(11,9,10,12)        -173.7938         estimate D2E/DX2                !
 ! D28   D(11,9,10,36)           4.9158         estimate D2E/DX2                !
 ! D29   D(9,10,12,13)         150.038          estimate D2E/DX2                !
 ! D30   D(9,10,12,14)         -89.2653         estimate D2E/DX2                !
 ! D31   D(9,10,12,37)          35.6799         estimate D2E/DX2                !
 ! D32   D(36,10,12,13)        -28.63           estimate D2E/DX2                !
 ! D33   D(36,10,12,14)         92.0668         estimate D2E/DX2                !
 ! D34   D(36,10,12,37)       -142.988          estimate D2E/DX2                !
 ! D35   D(10,12,13,15)       -120.8837         estimate D2E/DX2                !
 ! D36   D(10,12,13,18)         56.6654         estimate D2E/DX2                !
 ! D37   D(14,12,13,15)        116.9015         estimate D2E/DX2                !
 ! D38   D(14,12,13,18)        -65.5495         estimate D2E/DX2                !
 ! D39   D(37,12,13,15)         -2.7149         estimate D2E/DX2                !
 ! D40   D(37,12,13,18)        174.8342         estimate D2E/DX2                !
 ! D41   D(10,12,14,38)       -177.7137         estimate D2E/DX2                !
 ! D42   D(10,12,14,39)         62.2917         estimate D2E/DX2                !
 ! D43   D(10,12,14,40)        -57.1718         estimate D2E/DX2                !
 ! D44   D(13,12,14,38)        -58.6156         estimate D2E/DX2                !
 ! D45   D(13,12,14,39)       -178.6103         estimate D2E/DX2                !
 ! D46   D(13,12,14,40)         61.9262         estimate D2E/DX2                !
 ! D47   D(37,12,14,38)         57.3816         estimate D2E/DX2                !
 ! D48   D(37,12,14,39)        -62.6131         estimate D2E/DX2                !
 ! D49   D(37,12,14,40)        177.9234         estimate D2E/DX2                !
 ! D50   D(12,13,15,16)        177.8608         estimate D2E/DX2                !
 ! D51   D(18,13,15,16)          0.1047         estimate D2E/DX2                !
 ! D52   D(12,13,18,17)       -179.036          estimate D2E/DX2                !
 ! D53   D(15,13,18,17)         -1.4254         estimate D2E/DX2                !
 ! D54   D(13,15,16,17)          1.5161         estimate D2E/DX2                !
 ! D55   D(13,15,16,41)       -178.7849         estimate D2E/DX2                !
 ! D56   D(15,16,17,18)         -2.5155         estimate D2E/DX2                !
 ! D57   D(15,16,17,19)       -174.273          estimate D2E/DX2                !
 ! D58   D(41,16,17,18)        177.8048         estimate D2E/DX2                !
 ! D59   D(41,16,17,19)          6.0473         estimate D2E/DX2                !
 ! D60   D(16,17,18,13)          2.1441         estimate D2E/DX2                !
 ! D61   D(19,17,18,13)        173.6877         estimate D2E/DX2                !
 ! D62   D(16,17,19,20)       -139.8109         estimate D2E/DX2                !
 ! D63   D(16,17,19,21)         45.2514         estimate D2E/DX2                !
 ! D64   D(18,17,19,20)         49.8901         estimate D2E/DX2                !
 ! D65   D(18,17,19,21)       -125.0476         estimate D2E/DX2                !
 ! D66   D(17,19,21,22)         11.9328         estimate D2E/DX2                !
 ! D67   D(17,19,21,42)       -171.7809         estimate D2E/DX2                !
 ! D68   D(20,19,21,22)       -163.2759         estimate D2E/DX2                !
 ! D69   D(20,19,21,42)         13.0103         estimate D2E/DX2                !
 ! D70   D(19,21,22,23)          2.204          estimate D2E/DX2                !
 ! D71   D(19,21,22,27)       -179.1853         estimate D2E/DX2                !
 ! D72   D(42,21,22,23)       -174.1703         estimate D2E/DX2                !
 ! D73   D(42,21,22,27)          4.4404         estimate D2E/DX2                !
 ! D74   D(21,22,23,24)        179.2338         estimate D2E/DX2                !
 ! D75   D(27,22,23,24)          0.6684         estimate D2E/DX2                !
 ! D76   D(21,22,27,26)       -179.3684         estimate D2E/DX2                !
 ! D77   D(21,22,27,44)          0.781          estimate D2E/DX2                !
 ! D78   D(23,22,27,26)         -0.7255         estimate D2E/DX2                !
 ! D79   D(23,22,27,44)        179.424          estimate D2E/DX2                !
 ! D80   D(22,23,24,25)         -0.2396         estimate D2E/DX2                !
 ! D81   D(22,23,24,43)        179.8173         estimate D2E/DX2                !
 ! D82   D(23,24,25,26)         -0.1599         estimate D2E/DX2                !
 ! D83   D(23,24,25,29)        179.9079         estimate D2E/DX2                !
 ! D84   D(43,24,25,26)        179.7801         estimate D2E/DX2                !
 ! D85   D(43,24,25,29)         -0.1522         estimate D2E/DX2                !
 ! D86   D(24,25,26,27)          0.1073         estimate D2E/DX2                !
 ! D87   D(24,25,26,28)       -179.8147         estimate D2E/DX2                !
 ! D88   D(29,25,26,27)       -179.963          estimate D2E/DX2                !
 ! D89   D(29,25,26,28)          0.115          estimate D2E/DX2                !
 ! D90   D(25,26,27,22)          0.315          estimate D2E/DX2                !
 ! D91   D(25,26,27,44)       -179.8362         estimate D2E/DX2                !
 ! D92   D(28,26,27,22)       -179.7612         estimate D2E/DX2                !
 ! D93   D(28,26,27,44)          0.0877         estimate D2E/DX2                !
 ! D94   D(25,26,28,30)         59.1957         estimate D2E/DX2                !
 ! D95   D(25,26,28,31)        179.7627         estimate D2E/DX2                !
 ! D96   D(25,26,28,32)        -59.9097         estimate D2E/DX2                !
 ! D97   D(27,26,28,30)       -120.722          estimate D2E/DX2                !
 ! D98   D(27,26,28,31)         -0.155          estimate D2E/DX2                !
 ! D99   D(27,26,28,32)        120.1726         estimate D2E/DX2                !
 --------------------------------------------------------------------------------
 Trust Radius=3.00D-01 FncErr=1.00D-07 GrdErr=1.00D-06
 Number of steps in this run=    229 maximum allowed number of steps=    264.
 GradGradGradGradGradGradGradGradGradGradGradGradGradGradGradGradGradGrad

                          Input orientation:                          
 ---------------------------------------------------------------------
 Center     Atomic      Atomic             Coordinates (Angstroms)
 Number     Number       Type             X           Y           Z
 ---------------------------------------------------------------------
      1          6           0       -5.628902    0.681434   -0.263905
      2          7           0       -4.512441    0.269847    0.155843
      3          6           0       -3.979687    0.773615    1.190135
      4          6           0       -4.677876    1.770579    1.800451
      5          6           0       -5.871127    2.152138    1.286250
      6          7           0       -6.331821    1.594161    0.248146
      7          7           0       -6.543589    3.075083    1.839778
      8         17           0       -4.134429    2.675194    3.189326
      9          6           0       -2.763163    0.285825    1.603479
     10          7           0       -2.005943   -0.628124    0.916390
     11          8           0       -2.240911    0.628254    2.637930
     12          6           0       -2.208714   -1.201241   -0.421989
     13          6           0       -0.832456   -1.518920   -0.986234
     14          6           0       -3.066353   -2.477741   -0.385937
     15          7           0       -0.472823   -0.972722   -2.068921
     16          6           0        0.706858   -1.354219   -2.302791
     17          6           0        1.177048   -2.211621   -1.382935
     18         16           0        0.158957   -2.389930   -0.337825
     19          6           0        2.455900   -2.677420   -1.351400
     20          8           0        2.717133   -3.827836   -1.084283
     21          7           0        3.511050   -1.835174   -1.522038
     22          6           0        3.667296   -0.494712   -1.542042
     23          7           0        2.708950    0.305984   -1.338721
     24          6           0        2.919817    1.551978   -1.355763
     25          6           0        4.124222    2.104633   -1.576175
     26          6           0        5.178915    1.292907   -1.790122
     27          6           0        4.910324   -0.026962   -1.762619
     28          6           0        6.587502    1.802519   -2.045930
     29         17           0        4.265167    3.827836   -1.573351
     30          9           0        7.009636    2.537108   -1.028178
     31          9           0        7.468445    0.831007   -2.225014
     32          9           0        6.613661    2.563337   -3.129562
     33          1           0       -6.030345    0.192325   -1.167822
     34          1           0       -7.468445    3.370521    1.441364
     35          1           0       -6.180399    3.551014    2.701756
     36          1           0       -1.173663   -0.924399    1.426729
     37          1           0       -2.643252   -0.446452   -1.117647
     38          1           0       -3.170831   -2.914748   -1.405542
     39          1           0       -4.092179   -2.285483   -0.001959
     40          1           0       -2.622505   -3.253995    0.277430
     41          1           0        1.248673   -0.993449   -3.189326
     42          1           0        4.401555   -2.301676   -1.610691
     43          1           0        2.031475    2.180739   -1.172750
     44          1           0        5.723733   -0.752651   -1.926595
 ---------------------------------------------------------------------
                    Distance matrix (angstroms):
                    1          2          3          4          5
     1  C    0.000000
     2  N    1.261775   0.000000
     3  C    2.200600   1.267821   0.000000
     4  C    2.520368   2.232555   1.361577   0.000000
     5  C    2.150494   2.582028   2.342458   1.354193   0.000000
     6  N    1.260699   2.252215   2.663301   2.275150   1.265400
     7  N    3.315372   3.851045   3.506050   2.276876   1.269026
     8  Cl   4.258325   3.889808   2.763460   1.744316   2.628955
     9  C    3.443267   2.270656   1.374308   2.430930   3.639121
    10  N    4.029128   2.768992   2.436283   3.697914   4.775594
    11  O    4.461161   3.383646   2.267285   2.818701   4.162659
    12  C    3.907319   2.793769   3.104085   4.457321   5.251333
    13  C    5.326276   4.248096   4.460646   5.776995   6.635439
    14  C    4.069636   3.151815   3.726862   5.042373   5.665576
    15  N    5.707842   4.776198   5.096002   6.338786   7.082627
    16  C    6.960086   5.993626   6.220282   7.456294   8.273188
    17  C    7.479502   6.394983   6.490319   7.763504   8.708830
    18  S    6.552713   5.398155   5.428725   6.728820   7.722041
    19  C    8.822050   7.714658   7.732129   8.978286   9.981042
    20  O    9.521703   8.402122   8.437638   9.713398  10.730225
    21  N    9.563207   8.463026   8.382888   9.544574  10.574043
    22  C    9.457074   8.389008   8.218868   9.270690  10.294978
    23  N    8.415222   7.374518   7.166007   8.158715   9.160594
    24  C    8.662020   7.692026   7.395309   8.230092   9.198974
    25  C    9.943389   8.997682   8.665877   9.433458  10.397247
    26  C   10.932161   9.937596   9.645288  10.501272  11.502425
    27  C   10.668798   9.620660   9.401701  10.385577  11.414191
    28  C   12.396490  11.419528  11.099380  11.903966  12.901283
    29  Cl  10.464564   9.627866   9.216438   9.777160  10.664415
    30  F   12.796886  11.802569  11.348834  12.049342  13.092702
    31  F   13.244199  12.228042  11.946810  12.830443  13.857076
    32  F   12.713532  11.825571  11.579374  12.346348  13.249091
    33  H    1.103381   2.015473   3.178531   3.623631   3.144628
    34  H    3.677370   4.472662   4.356428   3.236670   2.014930
    35  H    4.163386   4.475468   3.852542   2.497974   2.013991
    36  H    5.028528   3.766804   3.288312   4.436449   5.617026
    37  H    3.303802   2.372494   2.932657   4.191684   4.790675
    38  H    4.503107   3.792029   4.582118   5.873829   6.341189
    39  H    3.351526   2.594462   3.285091   4.476981   4.951426
    40  H    4.981874   4.000513   4.347024   5.638305   6.387295
    41  H    7.659266   6.780598   7.045420   8.225674   8.978700
    42  H   10.550964   9.444189   9.356669  10.519278  11.565324
    43  H    7.858453   6.945466   6.610393   7.350071   8.276389
    44  H   11.563021  10.495776  10.305331  11.333624  12.377437
                    6          7          8          9         10
     6  N    0.000000
     7  N    2.184323   0.000000
     8  Cl   3.827232   2.790205   0.000000
     9  C    4.035343   4.703979   3.178736   0.000000
    10  N    4.909004   5.929302   4.539670   1.371414   0.000000
    11  O    4.835244   5.013687   2.842431   1.208343   2.144154
    12  C    5.026267   6.495666   5.637085   2.573189   1.469979
    13  C    6.438787   7.855460   6.777088   3.700182   2.406360
    14  C    5.257921   6.919453   6.362078   3.418625   2.498321
    15  N    6.803348   8.277491   7.373182   4.507341   3.373616
    16  C    8.046318   9.452438   8.356888   5.476288   4.271959
    17  C    8.574819   9.896633   8.543905   5.539058   4.233886
    18  S    7.638491   8.918096   7.518606   4.412155   3.060034
    19  C    9.900959  11.147453   9.628141   6.689600   5.408376
    20  O   10.632826  11.914755  10.368078   7.360701   6.045519
    21  N   10.572417  11.683672  10.049563   7.323472   6.151432
    22  C   10.370656  11.333239   9.659247   7.200996   6.184442
    23  N    9.268931  10.167608   8.540972   6.212968   5.309265
    24  C    9.389734  10.103830   8.466513   6.531196   5.846250
    25  C   10.626268  11.243340   9.552008   7.800919   7.159592
    26  C   11.693688  12.400380  10.651009   8.695248   7.914402
    27  C   11.535035  12.401293  10.659783   8.385157   7.441319
    28  C   13.123075  13.752952  11.963665  10.151526   9.409073
    29  Cl  10.981954  11.359810   9.724448   8.487374   8.085865
    30  F   13.435499  13.863784  11.916232  10.368293   9.750933
    31  F   14.040878  14.761284  12.936104  10.938025  10.087691
    32  F   13.413937  14.073715  12.468452  10.747724  10.042546
    33  H    2.015192   4.197543   5.361331   4.285246   4.605745
    34  H    2.423043   1.049465   3.828121   5.628615   6.789970
    35  H    3.142038   1.049487   2.278328   4.852337   6.170803
    36  H    5.859931   6.708396   4.982966   2.005590   1.020252
    37  H    4.431144   6.029942   5.524337   2.820485   2.139270
    38  H    5.749505   7.601689   7.299917   4.411810   3.460778
    39  H    4.486668   6.175522   5.898678   3.309885   2.818259
    40  H    6.104466   7.607434   6.776454   3.782660   2.771934
    41  H    8.716411  10.127398   9.117233   6.379839   5.251942
    42  H   11.568845  12.673257  10.985100   8.267964   7.088226
    43  H    8.503396   9.132738   7.569053   5.855485   5.343684
    44  H   12.472907  13.391202  11.623516   9.250257   8.236866
                   11         12         13         14         15
    11  O    0.000000
    12  C    3.565276   0.000000
    13  C    4.441696   1.520979   0.000000
    14  C    4.412746   1.538277   2.503995   0.000000
    15  N    5.276714   2.403731   1.264863   3.438592   0.000000
    16  C    6.085250   3.472950   2.032224   4.378784   1.261698
    17  C    5.992887   3.661648   2.162247   4.367067   2.174287
    18  S    4.870721   2.650647   1.470372   3.226864   2.324719
    19  C    6.993016   4.980114   3.505532   5.609569   3.463849
    20  O    7.635038   5.621530   4.235598   5.979896   4.392836
    21  N    7.513912   5.858983   4.387841   6.705658   4.112681
    22  C    7.323942   6.023387   4.648192   7.114142   4.200795
    23  N    6.357573   5.224514   3.999510   6.481593   3.505989
    24  C    6.590597   5.895251   4.862769   7.281032   4.288672
    25  C    7.775172   7.236507   6.168211   8.609250   5.553894
    26  C    8.666212   7.916415   6.684997   9.174637   6.095322
    27  C    8.422250   7.338728   5.983998   8.457479   5.474172
    28  C   10.062719   9.435739   8.198213  10.689861   7.586216
    29  Cl   8.384585   8.278187   7.410686   9.742763   6.763098
    30  F   10.131964   9.965977   8.829016  11.273275   8.330021
    31  F   10.860982  10.051285   8.715600  11.194284   8.145032
    32  F   10.742996   9.966810   8.758044  11.253560   7.990427
    33  H    5.388283   4.135596   5.475343   4.065199   5.749380
    34  H    6.023198   7.213727   8.592800   7.544509   8.951234
    35  H    4.905728   6.936569   8.240509   7.454999   8.706318
    36  H    2.239812   2.136757   2.508439   3.046458   3.565541
    37  H    3.926987   1.114661   2.108658   2.200125   2.427477
    38  H    5.455940   2.197533   2.755386   1.114220   3.389806
    39  H    4.345811   2.213469   3.490302   1.112080   4.369830
    40  H    4.559543   2.207761   2.794925   1.113385   3.915444
    41  H    6.983125   4.433380   3.075847   5.355517   2.054090
    42  H    8.411755   6.805852   5.328933   7.569721   5.073032
    43  H    5.931675   5.475457   4.682346   6.950422   4.125403
    44  H    9.283175   8.086333   6.667463   9.089289   6.202096
                   16         17         18         19         20
    16  C    0.000000
    17  C    1.342517   0.000000
    18  S    2.287790   1.469884   0.000000
    19  C    2.390639   1.361406   2.527040   0.000000
    20  O    3.412440   2.252378   3.028042   1.209567   0.000000
    21  N    2.950320   2.368254   3.598144   1.360822   2.189209
    22  C    3.175167   3.028932   4.165385   2.503605   3.496008
    23  N    2.773820   2.947374   3.843463   2.994143   4.141651
    24  C    3.773597   4.147609   4.919063   4.254767   5.390471
    25  C    4.916300   5.230031   6.120289   5.069699   6.116866
    26  C    5.222011   5.335022   6.393155   4.834334   5.725433
    27  C    4.441005   4.342147   5.494465   3.635688   4.440368
    28  C    6.679292   6.769483   7.862598   6.133707   6.899668
    29  Cl   6.328297   6.785851   7.553019   6.755817   7.825913
    30  F    7.516121   7.529632   8.466646   6.930533   7.677320
    31  F    7.106358   7.039059   8.207590   6.180442   6.751374
    32  F    7.135903   7.443634   8.601852   6.922021   7.759716
    33  H    7.004988   7.600773   6.757544   8.960217   9.627411
    34  H   10.157630  10.671529   9.722426  11.952813  12.725613
    35  H    9.825534  10.199249   9.204418  11.393293  12.163371
    36  H    4.198860   3.882911   2.652792   4.895387   5.465658
    37  H    3.667676   4.216739   3.498229   5.570746   6.337870
    38  H    4.275135   4.404424   3.535950   5.631994   5.966997
    39  H    5.402947   5.447688   4.265662   6.697159   7.065197
    40  H    4.620752   4.275507   2.976857   5.364301   5.540333
    41  H    1.099847   2.179936   3.356888   2.769680   3.823785
    42  H    3.876527   3.233795   4.430306   1.998497   2.333141
    43  H    3.940499   4.479626   5.009435   4.879935   6.048217
    44  H    5.066798   4.805882   6.014283   3.835925   4.382453
                   21         22         23         24         25
    21  N    0.000000
    22  C    1.349686   0.000000
    23  N    2.293802   1.265259   0.000000
    24  C    3.442383   2.186862   1.263826   0.000000
    25  C    3.987605   2.639421   2.300982   1.343354   0.000000
    26  C    3.555072   2.354170   2.697871   2.315018   1.347980
    27  C    2.299017   1.346315   2.266405   2.573072   2.279565
    28  C    4.792894   3.749503   4.216981   3.740456   2.525805
    29  Cl   5.713231   4.363812   3.857500   2.652704   1.728960
    30  F    5.621463   4.541721   4.854920   4.219528   2.968661
    31  F    4.823243   4.083224   4.869698   4.686727   3.636886
    32  F    5.617582   4.533536   4.852785   4.220627   2.969971
    33  H    9.760863   9.729147   8.741705   9.054799  10.341127
    34  H   12.507211  12.159172  10.986338  10.910866  12.045661
    35  H   11.864891  11.461013  10.289616  10.162359  11.250686
    36  H    5.609926   5.695008   4.923032   5.534554   6.801474
    37  H    6.321987   6.324987   5.409353   5.915924   7.246860
    38  H    6.769534   7.255011   6.704432   7.553152   8.856698
    39  H    7.766757   8.110991   7.399864   8.107218   9.447779
    40  H    6.547643   7.105330   6.611339   7.515453   8.813006
    41  H    2.933718   2.968505   2.691779   3.554416   4.524285
    42  H    1.009199   1.951658   3.120700   4.136567   4.415163
    43  H    4.294031   3.157582   2.000306   1.103624   2.132635
    44  H    2.496295   2.107925   3.248880   3.674113   3.293221
                   26         27         28         29         30
    26  C    0.000000
    27  C    1.347201   0.000000
    28  C    1.519625   2.498038   0.000000
    29  Cl   2.703292   3.912993   3.117448   0.000000
    30  F    2.340969   3.394255   1.324250   3.081445   0.000000
    31  F    2.375801   2.737499   1.323619   4.434708   2.133941
    32  F    2.338074   3.388147   1.324306   3.088070   2.138527
    33  H   11.280339  10.959020  12.750446  10.926068  13.249853
    34  H   13.217969  13.230356  14.566726  12.123337  14.710814
    35  H   12.422159  12.479451  13.733792  11.289952  13.744724
    36  H    7.457870   6.927643   8.929229   7.820811   9.218188
    37  H    8.041386   7.592659   9.546015   8.136551  10.103855
    38  H    9.357912   8.589056  10.857613  10.039157  11.554525
    39  H   10.097306   9.447005  11.616590  10.473164  12.147461
    40  H    9.263436   8.445061  10.760602  10.050758  11.314576
    41  H    4.757310   4.046885   6.134157   5.912309   7.093947
    42  H    3.682053   2.335862   4.670355   6.131143   5.527679
    43  H    3.328028   3.675549   4.654339   2.804067   4.992994
    44  H    2.121264   1.102337   2.699858   4.820068   3.644614
                   31         32         33         34         35
    31  F    0.000000
    32  F    2.133033   0.000000
    33  H   13.555180  13.013109   0.000000
    34  H   15.588526  14.827361   4.356250   0.000000
    35  H   14.763551  14.094955   5.126104   1.811140   0.000000
    36  H    9.544774   9.672978   5.618374   7.620422   6.835380
    37  H   10.252052   9.939672   3.447166   6.663356   6.563458
    38  H   11.309129  11.345393   4.229330   8.128897   8.230035
    39  H   12.177952  12.161742   3.354885   6.743347   6.762798
    40  H   11.170351  11.434846   5.057593   8.289879   8.052584
    41  H    6.553175   6.437188   7.647002  10.792389  10.514186
    42  H    4.426840   5.555964  10.735023  13.505027  12.838572
    43  H    5.699972   4.997192   8.303418   9.924598   9.182828
    44  H    2.375089   3.637977  11.816390  14.225936  13.477816
                   36         37         38         39         40
    36  H    0.000000
    37  H    2.976907   0.000000
    38  H    3.996489   2.540415   0.000000
    39  H    3.522987   2.593489   1.793015   0.000000
    40  H    2.974399   3.135118   1.802261   1.782138   0.000000
    41  H    5.213487   4.442763   5.138608   6.352429   5.666964
    42  H    6.496604   7.301661   7.599932   8.644756   7.335484
    43  H    5.164502   5.362671   7.285751   7.669226   7.300609
    44  H    7.671268   8.411575   9.168393  10.119581   8.987443
                   41         42         43         44
    41  H    0.000000
    42  H    3.760879   0.000000
    43  H    3.841201   5.089314   0.000000
    44  H    4.656032   2.060929   4.775545   0.000000
 Stoichiometry    C17H12Cl2F3N7O2S
 Framework group  C1[X(C17H12Cl2F3N7O2S)]
 Deg. of freedom   126
 Full point group                 C1      NOp   1
 Largest Abelian subgroup         C1      NOp   1
 Largest concise Abelian subgroup C1      NOp   1
                         Standard orientation:                         
 ---------------------------------------------------------------------
 Center     Atomic      Atomic             Coordinates (Angstroms)
 Number     Number       Type             X           Y           Z
 ---------------------------------------------------------------------
      1          6           0        5.779679    0.121929   -1.691226
      2          7           0        4.843467    0.365817   -0.881224
      3          6           0        4.651734   -0.370222    0.133100
      4          6           0        5.504089   -1.421492    0.282135
      5          6           0        6.484636   -1.611920   -0.632252
      6          7           0        6.606491   -0.826893   -1.617199
      7          7           0        7.295084   -2.581102   -0.512727
      8         17           0        5.410743   -2.621465    1.544668
      9          6           0        3.618149   -0.057178    0.983059
     10          7           0        2.686309    0.924555    0.762490
     11          8           0        3.436229   -0.634892    2.028643
     12          6           0        2.471027    1.767914   -0.422093
     13          6           0        0.987841    2.101331   -0.470787
     14          6           0        3.297026    3.064670   -0.372648
     15          7           0        0.316385    1.762185   -1.487648
     16          6           0       -0.879046    2.104312   -1.273694
     17          6           0       -1.048044    2.725653   -0.095676
     18         16           0        0.239694    2.756317    0.612385
     19          6           0       -2.257236    3.090093    0.412717
     20          8           0       -2.426412    4.143203    0.983147
     21          7           0       -3.312990    2.231810    0.388848
     22          6           0       -3.465930    0.915597    0.132247
     23          7           0       -2.490006    0.155372   -0.133291
     24          6           0       -2.694210   -1.072726   -0.350851
     25          6           0       -3.907715   -1.647824   -0.315234
     26          6           0       -4.978662   -0.881036   -0.028603
     27          6           0       -4.716399    0.420955    0.197209
     28          6           0       -6.397493   -1.420406    0.043899
     29         17           0       -4.038564   -3.341657   -0.636345
     30          9           0       -6.488557   -2.371375    0.960962
     31          9           0       -7.292561   -0.493036    0.345234
     32          9           0       -6.751286   -1.947088   -1.118522
     33          1           0        5.886063    0.808685   -2.548255
     34          1           0        8.055117   -2.728432   -1.221260
     35          1           0        7.212344   -3.243998    0.296684
     36          1           0        2.048537    1.056240    1.547870
     37          1           0        2.674189    1.199282   -1.359031
     38          1           0        3.085397    3.704245   -1.260140
     39          1           0        4.391343    2.867047   -0.360970
     40          1           0        3.075131    3.660176    0.541553
     41          1           0       -1.664570    1.894791   -2.014448
     42          1           0       -4.188883    2.646803    0.670051
     43          1           0       -1.791402   -1.665455   -0.578000
     44          1           0       -5.542178    1.109511    0.440369
 ---------------------------------------------------------------------
 Rotational constants (GHZ):      0.1887052      0.0471356      0.0402999
 Standard basis: 6-311++G(d,p) (5D, 7F)
 There are   844 symmetry adapted cartesian basis functions of A   symmetry.
 There are   812 symmetry adapted basis functions of A   symmetry.
   812 basis functions,  1308 primitive gaussians,   844 cartesian basis functions
   128 alpha electrons      128 beta electrons
       nuclear repulsion energy      3704.3470687023 Hartrees.
 NAtoms=   44 NActive=   44 NUniq=   44 SFac= 1.00D+00 NAtFMM=   60 NAOKFM=F Big=F
 Integral buffers will be    131072 words long.
 Raffenetti 2 integral format.
 Two-electron integral symmetry is turned on.
 One-electron integrals computed using PRISM.
 NBasis=   812 RedAO= T EigKep=  1.14D-06  NBF=   812
 NBsUse=   808 1.00D-06 EigRej=  7.40D-07 NBFU=   808
 ExpMin= 3.60D-02 ExpMax= 1.06D+05 ExpMxC= 3.62D+03 IAcc=3 IRadAn=         5 AccDes= 0.00D+00
 Harris functional with IExCor=  402 and IRadAn=       5 diagonalized for initial guess.
 HarFok:  IExCor=  402 AccDes= 0.00D+00 IRadAn=         5 IDoV= 1 UseB2=F ITyADJ=14
 ICtDFT=  3500011 ScaDFX=  1.000000  1.000000  1.000000  1.000000
 FoFCou: FMM=F IPFlag=           0 FMFlag=      100000 FMFlg1=           0
         NFxFlg=           0 DoJE=T BraDBF=F KetDBF=T FulRan=T
         wScrn=  0.000000 ICntrl=     500 IOpCl=  0 I1Cent=   200000004 NGrid=           0
         NMat0=    1 NMatS0=      1 NMatT0=    0 NMatD0=    1 NMtDS0=    0 NMtDT0=    0
 Petite list used in FoFCou.
 Requested convergence on RMS density matrix=1.00D-08 within 128 cycles.
 Requested convergence on MAX density matrix=1.00D-06.
 Requested convergence on             energy=1.00D-06.
 No special actions if energy rises.
 SCF Done:  E(RB3LYP) =  -2807.14273197     A.U. after   17 cycles
            NFock= 17  Conv=0.30D-08     -V/T= 2.0010

 **********************************************************************

            Population analysis using the SCF density.

 **********************************************************************

 Orbital symmetries:
       Occupied  (A) (A) (A) (A) (A) (A) (A) (A) (A) (A) (A) (A)
                 (A) (A) (A) (A) (A) (A) (A) (A) (A) (A) (A) (A)
                 (A) (A) (A) (A) (A) (A) (A) (A) (A) (A) (A) (A)
                 (A) (A) (A) (A) (A) (A) (A) (A) (A) (A) (A) (A)
                 (A) (A) (A) (A) (A) (A) (A) (A) (A) (A) (A) (A)
                 (A) (A) (A) (A) (A) (A) (A) (A) (A) (A) (A) (A)
                 (A) (A) (A) (A) (A) (A) (A) (A) (A) (A) (A) (A)
                 (A) (A) (A) (A) (A) (A) (A) (A) (A) (A) (A) (A)
                 (A) (A) (A) (A) (A) (A) (A) (A) (A) (A) (A) (A)
                 (A) (A) (A) (A) (A) (A) (A) (A) (A) (A) (A) (A)
                 (A) (A) (A) (A) (A) (A) (A) (A)
       Virtual   (A) (A) (A) (A) (A) (A) (A) (A) (A) (A) (A) (A)
                 (A) (A) (A) (A) (A) (A) (A) (A) (A) (A) (A) (A)
                 (A) (A) (A) (A) (A) (A) (A) (A) (A) (A) (A) (A)
                 (A) (A) (A) (A) (A) (A) (A) (A) (A) (A) (A) (A)
                 (A) (A) (A) (A) (A) (A) (A) (A) (A) (A) (A) (A)
                 (A) (A) (A) (A) (A) (A) (A) (A) (A) (A) (A) (A)
                 (A) (A) (A) (A) (A) (A) (A) (A) (A) (A) (A) (A)
                 (A) (A) (A) (A) (A) (A) (A) (A) (A) (A) (A) (A)
                 (A) (A) (A) (A) (A) (A) (A) (A) (A) (A) (A) (A)
                 (A) (A) (A) (A) (A) (A) (A) (A) (A) (A) (A) (A)
                 (A) (A) (A) (A) (A) (A) (A) (A) (A) (A) (A) (A)
                 (A) (A) (A) (A) (A) (A) (A) (A) (A) (A) (A) (A)
                 (A) (A) (A) (A) (A) (A) (A) (A) (A) (A) (A) (A)
                 (A) (A) (A) (A) (A) (A) (A) (A) (A) (A) (A) (A)
                 (A) (A) (A) (A) (A) (A) (A) (A) (A) (A) (A) (A)
                 (A) (A) (A) (A) (A) (A) (A) (A) (A) (A) (A) (A)
                 (A) (A) (A) (A) (A) (A) (A) (A) (A) (A) (A) (A)
                 (A) (A) (A) (A) (A) (A) (A) (A) (A) (A) (A) (A)
                 (A) (A) (A) (A) (A) (A) (A) (A) (A) (A) (A) (A)
                 (A) (A) (A) (A) (A) (A) (A) (A) (A) (A) (A) (A)
                 (A) (A) (A) (A) (A) (A) (A) (A) (A) (A) (A) (A)
                 (A) (A) (A) (A) (A) (A) (A) (A) (A) (A) (A) (A)
                 (A) (A) (A) (A) (A) (A) (A) (A) (A) (A) (A) (A)
                 (A) (A) (A) (A) (A) (A) (A) (A) (A) (A) (A) (A)
                 (A) (A) (A) (A) (A) (A) (A) (A) (A) (A) (A) (A)
                 (A) (A) (A) (A) (A) (A) (A) (A) (A) (A) (A) (A)
                 (A) (A) (A) (A) (A) (A) (A) (A) (A) (A) (A) (A)
                 (A) (A) (A) (A) (A) (A) (A) (A) (A) (A) (A) (A)
                 (A) (A) (A) (A) (A) (A) (A) (A) (A) (A) (A) (A)
                 (A) (A) (A) (A) (A) (A) (A) (A) (A) (A) (A) (A)
                 (A) (A) (A) (A) (A) (A) (A) (A) (A) (A) (A) (A)
                 (A) (A) (A) (A) (A) (A) (A) (A) (A) (A) (A) (A)
                 (A) (A) (A) (A) (A) (A) (A) (A) (A) (A) (A) (A)
                 (A) (A) (A) (A) (A) (A) (A) (A) (A) (A) (A) (A)
                 (A) (A) (A) (A) (A) (A) (A) (A) (A) (A) (A) (A)
                 (A) (A) (A) (A) (A) (A) (A) (A) (A) (A) (A) (A)
                 (A) (A) (A) (A) (A) (A) (A) (A) (A) (A) (A) (A)
                 (A) (A) (A) (A) (A) (A) (A) (A) (A) (A) (A) (A)
                 (A) (A) (A) (A) (A) (A) (A) (A) (A) (A) (A) (A)
                 (A) (A) (A) (A) (A) (A) (A) (A) (A) (A) (A) (A)
                 (A) (A) (A) (A) (A) (A) (A) (A) (A) (A) (A) (A)
                 (A) (A) (A) (A) (A) (A) (A) (A) (A) (A) (A) (A)
                 (A) (A) (A) (A) (A) (A) (A) (A) (A) (A) (A) (A)
                 (A) (A) (A) (A) (A) (A) (A) (A) (A) (A) (A) (A)
                 (A) (A) (A) (A) (A) (A) (A) (A) (A) (A) (A) (A)
                 (A) (A) (A) (A) (A) (A) (A) (A) (A) (A) (A) (A)
                 (A) (A) (A) (A) (A) (A) (A) (A) (A) (A) (A) (A)
                 (A) (A) (A) (A) (A) (A) (A) (A) (A) (A) (A) (A)
                 (A) (A) (A) (A) (A) (A) (A) (A) (A) (A) (A) (A)
                 (A) (A) (A) (A) (A) (A) (A) (A) (A) (A) (A) (A)
                 (A) (A) (A) (A) (A) (A) (A) (A) (A) (A) (A) (A)
                 (A) (A) (A) (A) (A) (A) (A) (A) (A) (A) (A) (A)
                 (A) (A) (A) (A) (A) (A) (A) (A) (A) (A) (A) (A)
                 (A) (A) (A) (A) (A) (A) (A) (A) (A) (A) (A) (A)
                 (A) (A) (A) (A) (A) (A) (A) (A) (A) (A) (A) (A)
                 (A) (A) (A) (A) (A) (A) (A) (A) (A) (A) (A) (A)
                 (A) (A) (A) (A) (A) (A) (A) (A)
 The electronic state is 1-A.
 Alpha  occ. eigenvalues -- -101.57589-101.57010 -88.89334 -24.74238 -24.73436
 Alpha  occ. eigenvalues --  -24.73432 -19.11280 -19.09006 -14.37886 -14.35818
 Alpha  occ. eigenvalues --  -14.34329 -14.33580 -14.32027 -14.31285 -14.31279
 Alpha  occ. eigenvalues --  -10.45716 -10.30105 -10.27855 -10.27730 -10.26886
 Alpha  occ. eigenvalues --  -10.26123 -10.24960 -10.24501 -10.24447 -10.24028
 Alpha  occ. eigenvalues --  -10.23955 -10.23218 -10.22083 -10.21895 -10.21178
 Alpha  occ. eigenvalues --  -10.18996 -10.17554  -9.49114  -9.48521  -7.99611
 Alpha  occ. eigenvalues --   -7.25593  -7.24974  -7.24579  -7.24537  -7.24018
 Alpha  occ. eigenvalues --   -7.23939  -5.95724  -5.95312  -5.95200  -1.36104
 Alpha  occ. eigenvalues --   -1.26652  -1.26194  -1.09336  -1.07744  -1.06895
 Alpha  occ. eigenvalues --   -1.06211  -1.04854  -0.99603  -0.97447  -0.93611
 Alpha  occ. eigenvalues --   -0.92753  -0.92060  -0.89526  -0.88532  -0.86759
 Alpha  occ. eigenvalues --   -0.82446  -0.80341  -0.79643  -0.76546  -0.75640
 Alpha  occ. eigenvalues --   -0.73427  -0.70934  -0.69286  -0.68626  -0.68289
 Alpha  occ. eigenvalues --   -0.65330  -0.65228  -0.63374  -0.63010  -0.62988
 Alpha  occ. eigenvalues --   -0.61313  -0.60969  -0.59520  -0.58170  -0.56789
 Alpha  occ. eigenvalues --   -0.56402  -0.53820  -0.53137  -0.51900  -0.51015
 Alpha  occ. eigenvalues --   -0.50777  -0.50672  -0.50211  -0.50059  -0.49942
 Alpha  occ. eigenvalues --   -0.49029  -0.48185  -0.47631  -0.47016  -0.46836
 Alpha  occ. eigenvalues --   -0.46268  -0.45936  -0.45492  -0.44998  -0.44590
 Alpha  occ. eigenvalues --   -0.43962  -0.43488  -0.43107  -0.42561  -0.42427
 Alpha  occ. eigenvalues --   -0.41210  -0.40053  -0.39748  -0.38739  -0.38318
 Alpha  occ. eigenvalues --   -0.36840  -0.36562  -0.34796  -0.34560  -0.34483
 Alpha  occ. eigenvalues --   -0.33555  -0.32991  -0.31875  -0.31507  -0.31356
 Alpha  occ. eigenvalues --   -0.30143  -0.28573  -0.28378  -0.26889  -0.26155
 Alpha  occ. eigenvalues --   -0.25927  -0.25840  -0.25365
 Alpha virt. eigenvalues --   -0.08469  -0.07795  -0.05857  -0.03383  -0.02225
 Alpha virt. eigenvalues --   -0.02092  -0.01839  -0.00757  -0.00333   0.00063
 Alpha virt. eigenvalues --    0.00499   0.00582   0.01115   0.01179   0.01673
 Alpha virt. eigenvalues --    0.02003   0.02541   0.02713   0.03128   0.03389
 Alpha virt. eigenvalues --    0.03750   0.04129   0.04238   0.04499   0.04727
 Alpha virt. eigenvalues --    0.05050   0.05440   0.05682   0.06122   0.06445
 Alpha virt. eigenvalues --    0.06737   0.06967   0.07178   0.07814   0.07922
 Alpha virt. eigenvalues --    0.08049   0.08363   0.08666   0.08956   0.08994
 Alpha virt. eigenvalues --    0.09115   0.09709   0.09859   0.10098   0.10426
 Alpha virt. eigenvalues --    0.10523   0.10778   0.10977   0.11266   0.11460
 Alpha virt. eigenvalues --    0.11683   0.11779   0.12041   0.12348   0.12401
 Alpha virt. eigenvalues --    0.12661   0.12685   0.13148   0.13252   0.13568
 Alpha virt. eigenvalues --    0.13692   0.13773   0.14110   0.14190   0.14432
 Alpha virt. eigenvalues --    0.14568   0.14903   0.15254   0.15271   0.15807
 Alpha virt. eigenvalues --    0.15881   0.16012   0.16321   0.16508   0.16796
 Alpha virt. eigenvalues --    0.16952   0.17336   0.17570   0.17938   0.18217
 Alpha virt. eigenvalues --    0.18324   0.18385   0.18567   0.18898   0.19005
 Alpha virt. eigenvalues --    0.19219   0.19518   0.19843   0.19918   0.20362
 Alpha virt. eigenvalues --    0.20677   0.20853   0.21182   0.21542   0.21685
 Alpha virt. eigenvalues --    0.21823   0.22304   0.22465   0.22588   0.22768
 Alpha virt. eigenvalues --    0.22873   0.23162   0.23415   0.23902   0.23982
 Alpha virt. eigenvalues --    0.24439   0.24560   0.24633   0.24999   0.25211
 Alpha virt. eigenvalues --    0.25544   0.25918   0.26266   0.26343   0.26529
 Alpha virt. eigenvalues --    0.26587   0.26970   0.27354   0.27506   0.27697
 Alpha virt. eigenvalues --    0.27809   0.28000   0.28197   0.28261   0.28876
 Alpha virt. eigenvalues --    0.29067   0.29280   0.29771   0.30036   0.30233
 Alpha virt. eigenvalues --    0.30362   0.30671   0.30795   0.31181   0.31224
 Alpha virt. eigenvalues --    0.31508   0.31687   0.31805   0.32346   0.32409
 Alpha virt. eigenvalues --    0.32856   0.32920   0.33223   0.33494   0.33641
 Alpha virt. eigenvalues --    0.33876   0.34230   0.34381   0.34970   0.35123
 Alpha virt. eigenvalues --    0.35334   0.35690   0.36078   0.36388   0.36477
 Alpha virt. eigenvalues --    0.36824   0.37092   0.37269   0.37496   0.37840
 Alpha virt. eigenvalues --    0.38231   0.38660   0.38905   0.39244   0.39462
 Alpha virt. eigenvalues --    0.39592   0.40128   0.40302   0.40691   0.41485
 Alpha virt. eigenvalues --    0.41898   0.42384   0.42673   0.43067   0.43206
 Alpha virt. eigenvalues --    0.43934   0.44412   0.44871   0.45140   0.45949
 Alpha virt. eigenvalues --    0.46589   0.46867   0.47053   0.47360   0.47596
 Alpha virt. eigenvalues --    0.48015   0.48123   0.49285   0.49547   0.50062
 Alpha virt. eigenvalues --    0.51563   0.52285   0.52504   0.53067   0.53770
 Alpha virt. eigenvalues --    0.54265   0.54603   0.55234   0.55817   0.55920
 Alpha virt. eigenvalues --    0.56567   0.56968   0.57536   0.57783   0.58212
 Alpha virt. eigenvalues --    0.58846   0.59050   0.59755   0.60389   0.60551
 Alpha virt. eigenvalues --    0.61075   0.61569   0.61972   0.62215   0.62847
 Alpha virt. eigenvalues --    0.63329   0.63483   0.64336   0.64605   0.65071
 Alpha virt. eigenvalues --    0.65571   0.66009   0.66437   0.66591   0.67747
 Alpha virt. eigenvalues --    0.67957   0.68416   0.69278   0.69458   0.70282
 Alpha virt. eigenvalues --    0.70461   0.71000   0.71140   0.71431   0.71669
 Alpha virt. eigenvalues --    0.72122   0.72599   0.73268   0.73518   0.74334
 Alpha virt. eigenvalues --    0.74604   0.75202   0.76047   0.76467   0.76616
 Alpha virt. eigenvalues --    0.76896   0.77965   0.78700   0.79208   0.79809
 Alpha virt. eigenvalues --    0.80557   0.80780   0.81375   0.81546   0.81777
 Alpha virt. eigenvalues --    0.82587   0.83345   0.84073   0.84376   0.85377
 Alpha virt. eigenvalues --    0.85563   0.86148   0.86391   0.86618   0.87312
 Alpha virt. eigenvalues --    0.87460   0.87672   0.87887   0.87913   0.88163
 Alpha virt. eigenvalues --    0.89067   0.89268   0.89774   0.90081   0.90619
 Alpha virt. eigenvalues --    0.91020   0.91146   0.91899   0.92396   0.93165
 Alpha virt. eigenvalues --    0.93596   0.94143   0.94483   0.95221   0.95760
 Alpha virt. eigenvalues --    0.95970   0.96571   0.97064   0.97458   0.98676
 Alpha virt. eigenvalues --    0.99009   1.00129   1.00266   1.00835   1.01030
 Alpha virt. eigenvalues --    1.01762   1.02194   1.02415   1.02838   1.03464
 Alpha virt. eigenvalues --    1.03899   1.04455   1.06270   1.07045   1.07986
 Alpha virt. eigenvalues --    1.08797   1.09084   1.09385   1.09886   1.10340
 Alpha virt. eigenvalues --    1.11217   1.12492   1.12576   1.14075   1.14257
 Alpha virt. eigenvalues --    1.14996   1.15489   1.15851   1.17570   1.18696
 Alpha virt. eigenvalues --    1.19725   1.19945   1.20635   1.20826   1.21247
 Alpha virt. eigenvalues --    1.23119   1.23709   1.24226   1.25076   1.25370
 Alpha virt. eigenvalues --    1.25673   1.26382   1.27188   1.27999   1.29214
 Alpha virt. eigenvalues --    1.30307   1.30752   1.31871   1.32222   1.33234
 Alpha virt. eigenvalues --    1.34382   1.34753   1.36310   1.36893   1.37602
 Alpha virt. eigenvalues --    1.37933   1.38401   1.38667   1.40076   1.40889
 Alpha virt. eigenvalues --    1.41301   1.42087   1.42319   1.43756   1.44091
 Alpha virt. eigenvalues --    1.45477   1.46601   1.47136   1.47693   1.48524
 Alpha virt. eigenvalues --    1.49152   1.49356   1.50226   1.50359   1.51161
 Alpha virt. eigenvalues --    1.51269   1.52211   1.52508   1.52890   1.54912
 Alpha virt. eigenvalues --    1.56034   1.58138   1.58860   1.59106   1.59681
 Alpha virt. eigenvalues --    1.60013   1.60584   1.61076   1.61604   1.63062
 Alpha virt. eigenvalues --    1.63896   1.64995   1.65922   1.66695   1.66853
 Alpha virt. eigenvalues --    1.67939   1.68537   1.69143   1.69477   1.69921
 Alpha virt. eigenvalues --    1.71270   1.72127   1.72849   1.73070   1.75326
 Alpha virt. eigenvalues --    1.75919   1.76592   1.77528   1.78377   1.79061
 Alpha virt. eigenvalues --    1.80350   1.80958   1.81348   1.81841   1.82464
 Alpha virt. eigenvalues --    1.83265   1.83898   1.85208   1.86346   1.86480
 Alpha virt. eigenvalues --    1.88023   1.88276   1.88874   1.90503   1.91512
 Alpha virt. eigenvalues --    1.92272   1.92743   1.93154   1.94633   1.95484
 Alpha virt. eigenvalues --    1.95975   1.97137   1.99058   1.99202   2.00636
 Alpha virt. eigenvalues --    2.00889   2.01263   2.01704   2.02579   2.04372
 Alpha virt. eigenvalues --    2.05281   2.05594   2.06528   2.06870   2.08386
 Alpha virt. eigenvalues --    2.09486   2.10414   2.11577   2.12465   2.12708
 Alpha virt. eigenvalues --    2.13495   2.15128   2.15911   2.18260   2.18489
 Alpha virt. eigenvalues --    2.21417   2.21857   2.22587   2.23621   2.24777
 Alpha virt. eigenvalues --    2.25083   2.26661   2.26880   2.27732   2.29025
 Alpha virt. eigenvalues --    2.29805   2.30956   2.33129   2.33313   2.34002
 Alpha virt. eigenvalues --    2.35809   2.36262   2.36974   2.38852   2.39285
 Alpha virt. eigenvalues --    2.40119   2.42711   2.44427   2.45043   2.45833
 Alpha virt. eigenvalues --    2.47084   2.48469   2.49602   2.49867   2.53942
 Alpha virt. eigenvalues --    2.55643   2.56671   2.56970   2.57474   2.58242
 Alpha virt. eigenvalues --    2.59115   2.59800   2.60922   2.62228   2.63848
 Alpha virt. eigenvalues --    2.65203   2.65335   2.66462   2.67355   2.68079
 Alpha virt. eigenvalues --    2.69767   2.70844   2.72827   2.73750   2.74221
 Alpha virt. eigenvalues --    2.74776   2.74981   2.77012   2.78304   2.78719
 Alpha virt. eigenvalues --    2.79571   2.80470   2.81908   2.83029   2.84712
 Alpha virt. eigenvalues --    2.85688   2.86003   2.86515   2.87222   2.88111
 Alpha virt. eigenvalues --    2.88712   2.89191   2.90369   2.90779   2.91354
 Alpha virt. eigenvalues --    2.92651   2.93168   2.93722   2.94233   2.94960
 Alpha virt. eigenvalues --    2.95152   2.96686   2.96905   2.97854   2.98068
 Alpha virt. eigenvalues --    2.99299   3.00346   3.00908   3.01523   3.02443
 Alpha virt. eigenvalues --    3.03799   3.05523   3.06459   3.07263   3.09043
 Alpha virt. eigenvalues --    3.10359   3.11086   3.12933   3.14171   3.19209
 Alpha virt. eigenvalues --    3.25965   3.26224   3.28386   3.29255   3.31798
 Alpha virt. eigenvalues --    3.32822   3.34438   3.35809   3.38478   3.39798
 Alpha virt. eigenvalues --    3.40495   3.42621   3.44187   3.46635   3.47961
 Alpha virt. eigenvalues --    3.49770   3.52183   3.54987   3.57566   3.58302
 Alpha virt. eigenvalues --    3.60132   3.61379   3.62181   3.63585   3.66372
 Alpha virt. eigenvalues --    3.68344   3.70818   3.71985   3.72555   3.74526
 Alpha virt. eigenvalues --    3.74724   3.75333   3.76216   3.76884   3.76998
 Alpha virt. eigenvalues --    3.78397   3.81587   3.81825   3.83345   3.86007
 Alpha virt. eigenvalues --    3.86194   3.86272   3.89960   3.90636   3.91408
 Alpha virt. eigenvalues --    3.93904   3.94197   3.95330   3.96616   3.97165
 Alpha virt. eigenvalues --    3.98095   3.99767   4.00193   4.05028   4.07605
 Alpha virt. eigenvalues --    4.09446   4.09885   4.14615   4.20312   4.24096
 Alpha virt. eigenvalues --    4.24977   4.27374   4.33875   4.43755   4.52666
 Alpha virt. eigenvalues --    4.53120   4.56392   4.59517   4.65784   4.71693
 Alpha virt. eigenvalues --    4.80497   4.80747   4.91451   4.92849   4.95197
 Alpha virt. eigenvalues --    5.03663   5.08646   5.10440   5.12214   5.17378
 Alpha virt. eigenvalues --    5.18736   5.25330   5.30340   5.41000   5.46334
 Alpha virt. eigenvalues --    5.80909   5.85174   6.29033   6.31934   6.33826
 Alpha virt. eigenvalues --    6.36414   6.40283   6.41795   6.48299   6.75925
 Alpha virt. eigenvalues --    6.79513   8.29801   9.81419   9.81879  17.34126
 Alpha virt. eigenvalues --   17.72485  17.80367  23.52907  23.62777  23.75613
 Alpha virt. eigenvalues --   23.81257  23.85761  23.94489  23.95545  23.98625
 Alpha virt. eigenvalues --   24.02280  24.10590  24.11287  24.13865  24.17520
 Alpha virt. eigenvalues --   24.20936  24.22651  24.26775  24.28285  25.84338
 Alpha virt. eigenvalues --   25.84987  26.21098  26.31090  26.75793  26.76556
 Alpha virt. eigenvalues --   35.61149  35.66095  35.66255  35.78247  35.81910
 Alpha virt. eigenvalues --   35.82860  35.89990  50.03683  50.09212  66.72764
 Alpha virt. eigenvalues --   66.75676  66.81462 189.55685 215.81486 215.81993
          Condensed to atoms (all electrons):
               1          2          3          4          5          6
     1  C    6.025206   0.081590   0.356584   0.922750  -1.223550   0.295928
     2  N    0.081590   7.444071  -0.268084   0.366930   0.073070   0.110484
     3  C    0.356584  -0.268084  21.175355   3.089925  -2.621235   0.023995
     4  C    0.922750   0.366930   3.089925  20.730255  -5.657539  -0.247268
     5  C   -1.223550   0.073070  -2.621235  -5.657539  15.193591   0.387949
     6  N    0.295928   0.110484   0.023995  -0.247268   0.387949   6.814594
     7  N    0.096254  -0.076620   0.033173   0.235797  -0.164153  -0.296334
     8  Cl   0.160872  -0.090915   0.573711  -0.605850  -0.602490  -0.046745
     9  C   -1.205172  -0.484334 -15.442998 -12.657190   0.849265   0.230591
    10  N   -0.099930  -0.005611  -1.651048  -0.378239   0.056790   0.003480
    11  O   -0.006595   0.028105   0.197786   0.045817   0.224554   0.002595
    12  C   -0.019372   0.145423   0.482045   0.016076  -0.211874  -0.005304
    13  C    0.080237  -0.119565   1.225614   0.382168  -0.074658  -0.003471
    14  C    0.017424   0.047154  -0.986718  -0.222530   0.033296  -0.001528
    15  N   -0.009932  -0.003004  -0.012770   0.005190   0.005940   0.000086
    16  C   -0.027378   0.015755  -0.365697  -0.028428   0.009740  -0.000189
    17  C    0.030333  -0.012278   0.351026   0.051326  -0.007699   0.000172
    18  S    0.012167  -0.038036   0.322496  -0.017657  -0.023488  -0.000947
    19  C    0.003376   0.003570   0.063696  -0.015812  -0.000817  -0.000005
    20  O    0.000004   0.000010  -0.000007  -0.000022  -0.000001   0.000000
    21  N    0.000017   0.000008   0.001700  -0.000181  -0.000016   0.000000
    22  C   -0.000127  -0.000083   0.008881   0.002666  -0.000007   0.000005
    23  N    0.000132   0.000062   0.001269  -0.000176  -0.000154  -0.000002
    24  C    0.000558   0.000149   0.010569  -0.004536  -0.000315   0.000026
    25  C   -0.000833   0.000233  -0.022840   0.002812   0.000726   0.000014
    26  C   -0.000095   0.000172  -0.003526  -0.001161  -0.000030   0.000001
    27  C    0.000053   0.000013   0.000728  -0.000370  -0.000054   0.000000
    28  C   -0.000002   0.000004  -0.000137  -0.000017  -0.000001   0.000000
    29  Cl   0.000019   0.000001   0.000008   0.000019  -0.000005   0.000000
    30  F    0.000000   0.000000   0.000000   0.000000   0.000000   0.000000
    31  F    0.000000   0.000000   0.000000   0.000000   0.000000   0.000000
    32  F    0.000000   0.000000   0.000000   0.000000   0.000000   0.000000
    33  H    0.542071  -0.200630   0.025398   0.021494  -0.002275  -0.149134
    34  H    0.002146  -0.000807  -0.003164   0.007047  -0.031297   0.001384
    35  H   -0.009054  -0.001967  -0.021388  -0.206097   0.258881   0.011517
    36  H   -0.026739   0.016518  -0.753537  -0.297574   0.010163   0.002213
    37  H   -0.064122  -0.013688   0.132021   0.007330   0.005622   0.005172
    38  H    0.007826  -0.001608  -0.046345  -0.014798  -0.004871  -0.000323
    39  H   -0.054780   0.031620   0.164908   0.079012   0.022190   0.005766
    40  H    0.000911   0.003166   0.015049   0.001920  -0.001286  -0.000144
    41  H   -0.000367   0.000590  -0.008059  -0.000948   0.000112   0.000012
    42  H    0.000010   0.000004   0.000763  -0.000119   0.000000   0.000000
    43  H    0.000498   0.000206   0.005117   0.002627   0.000367  -0.000061
    44  H   -0.000002  -0.000002  -0.000127   0.000018   0.000001   0.000000
               7          8          9         10         11         12
     1  C    0.096254   0.160872  -1.205172  -0.099930  -0.006595  -0.019372
     2  N   -0.076620  -0.090915  -0.484334  -0.005611   0.028105   0.145423
     3  C    0.033173   0.573711 -15.442998  -1.651048   0.197786   0.482045
     4  C    0.235797  -0.605850 -12.657190  -0.378239   0.045817   0.016076
     5  C   -0.164153  -0.602490   0.849265   0.056790   0.224554  -0.211874
     6  N   -0.296334  -0.046745   0.230591   0.003480   0.002595  -0.005304
     7  N    6.929886  -0.004239  -0.057228  -0.000290  -0.002137  -0.012156
     8  Cl  -0.004239  17.456274  -0.265334   0.017229  -0.067289  -0.031341
     9  C   -0.057228  -0.265334  35.606018   1.500377  -0.353160  -1.087906
    10  N   -0.000290   0.017229   1.500377   8.170026  -0.171658  -0.273169
    11  O   -0.002137  -0.067289  -0.353160  -0.171658   8.318594  -0.031591
    12  C   -0.012156  -0.031341  -1.087906  -0.273169  -0.031591   9.463157
    13  C    0.001088   0.000239  -1.463235  -0.601416   0.042280  -0.935955
    14  C    0.000932   0.014048   1.015893   0.328266   0.005293  -1.121197
    15  N   -0.000020  -0.000410   0.076149   0.040722  -0.000080  -0.441259
    16  C   -0.000031  -0.001752   0.465618  -0.126822  -0.001420  -1.057544
    17  C    0.000142   0.001516  -0.604879   0.004174  -0.005265   0.157349
    18  S    0.000021   0.004809  -0.126478  -0.024721  -0.001509  -0.404199
    19  C    0.000003   0.000335  -0.116567  -0.026161   0.000844   1.401056
    20  O    0.000000   0.000000   0.000772   0.000670   0.000005   0.005641
    21  N    0.000000   0.000014  -0.002889  -0.000972   0.000059   0.006616
    22  C    0.000001  -0.000096  -0.006363  -0.013028   0.000029   0.007957
    23  N    0.000000   0.000080   0.007779  -0.000257   0.000145  -0.005389
    24  C   -0.000002  -0.000049  -0.017088   0.017379   0.000057   0.058714
    25  C   -0.000001  -0.000171   0.030672   0.000406   0.000222  -0.089527
    26  C    0.000000  -0.000005   0.009001  -0.004274   0.000147   0.053035
    27  C    0.000000   0.000004  -0.007644   0.001039  -0.000028   0.004649
    28  C    0.000000   0.000002   0.000507  -0.000187   0.000005   0.003783
    29  Cl   0.000000   0.000013  -0.000257   0.000155  -0.000011  -0.001427
    30  F    0.000000   0.000000   0.000000   0.000000   0.000000   0.000000
    31  F    0.000000   0.000000   0.000000   0.000000   0.000000   0.000002
    32  F    0.000000   0.000000   0.000000   0.000000   0.000000   0.000000
    33  H    0.014740   0.007774  -0.005839  -0.005943   0.000071  -0.005484
    34  H    0.337901  -0.000786   0.016805   0.000267  -0.000559  -0.000225
    35  H    0.294441   0.079869  -0.077536  -0.001079   0.006502  -0.003179
    36  H   -0.001353  -0.011431   0.911044   0.417265  -0.015662   0.067327
    37  H   -0.002047  -0.003731  -0.068724  -0.063806   0.006037   0.352073
    38  H    0.000138   0.000713   0.059297   0.036700   0.000047  -0.096852
    39  H   -0.002365  -0.004107  -0.286875  -0.008859  -0.001424   0.038104
    40  H    0.000020   0.000035  -0.037233  -0.041683   0.001800   0.044347
    41  H    0.000001  -0.000075   0.001424  -0.005885  -0.000127   0.011205
    42  H    0.000000   0.000001  -0.000909  -0.000055   0.000014   0.015524
    43  H    0.000013   0.000812  -0.007101   0.002999  -0.000633   0.001098
    44  H    0.000000   0.000000   0.000021   0.000079  -0.000005  -0.002345
              13         14         15         16         17         18
     1  C    0.080237   0.017424  -0.009932  -0.027378   0.030333   0.012167
     2  N   -0.119565   0.047154  -0.003004   0.015755  -0.012278  -0.038036
     3  C    1.225614  -0.986718  -0.012770  -0.365697   0.351026   0.322496
     4  C    0.382168  -0.222530   0.005190  -0.028428   0.051326  -0.017657
     5  C   -0.074658   0.033296   0.005940   0.009740  -0.007699  -0.023488
     6  N   -0.003471  -0.001528   0.000086  -0.000189   0.000172  -0.000947
     7  N    0.001088   0.000932  -0.000020  -0.000031   0.000142   0.000021
     8  Cl   0.000239   0.014048  -0.000410  -0.001752   0.001516   0.004809
     9  C   -1.463235   1.015893   0.076149   0.465618  -0.604879  -0.126478
    10  N   -0.601416   0.328266   0.040722  -0.126822   0.004174  -0.024721
    11  O    0.042280   0.005293  -0.000080  -0.001420  -0.005265  -0.001509
    12  C   -0.935955  -1.121197  -0.441259  -1.057544   0.157349  -0.404199
    13  C   14.800292  -0.787335   0.046570  -0.944100   0.134621  -2.029619
    14  C   -0.787335   7.245193  -0.029365   0.455409  -0.207911  -0.343832
    15  N    0.046570  -0.029365   6.785749  -0.092504   0.410362   0.379070
    16  C   -0.944100   0.455409  -0.092504  23.559459 -12.150571   0.608880
    17  C    0.134621  -0.207911   0.410362 -12.150571  40.238359  -2.707621
    18  S   -2.029619  -0.343832   0.379070   0.608880  -2.707621  19.813853
    19  C   -3.787459  -0.109983  -0.172070  -4.551827 -17.065138   0.828223
    20  O    0.021021  -0.002430   0.003584   0.032170   0.004857   0.002497
    21  N   -0.159214   0.000442  -0.023514   0.578691  -2.182295   0.225585
    22  C    0.120052   0.003704  -0.000861   0.167687   0.888080  -0.266510
    23  N    0.275354  -0.000211  -0.002482   0.021494  -0.355091  -0.021562
    24  C    0.059964  -0.004472   0.083864  -1.628595  -0.198745   0.080503
    25  C    0.071075   0.005291  -0.044158   1.227292   0.388094  -0.140241
    26  C   -0.017301   0.001216  -0.003573   0.053591   0.109454  -0.112282
    27  C   -0.125353  -0.002591   0.008878  -0.641781   0.100775  -0.067016
    28  C   -0.015229   0.000036  -0.000822   0.035000  -0.090204   0.009299
    29  Cl   0.002414   0.000067   0.000570   0.018359  -0.006140   0.003557
    30  F    0.000000   0.000000   0.000001  -0.000284   0.000302  -0.000034
    31  F    0.000048   0.000000  -0.000003   0.000304   0.000816  -0.000122
    32  F   -0.000029   0.000000  -0.000002   0.000297  -0.000513  -0.000003
    33  H    0.007453   0.001986  -0.001441  -0.005165   0.005827   0.001321
    34  H   -0.000209   0.000089   0.000003   0.000006  -0.000006   0.000025
    35  H    0.000227   0.000174  -0.000006  -0.000040   0.000050  -0.000108
    36  H   -0.028117   0.081690  -0.033387   0.056872  -0.119029  -0.150979
    37  H    0.037097  -0.114292   0.042297   0.185758  -0.244044   0.029031
    38  H   -0.089221   0.463813   0.005642   0.073800  -0.071374   0.014324
    39  H    0.052795   0.325798  -0.009247  -0.038176   0.057941  -0.019339
    40  H    0.025521   0.350630  -0.008255   0.022103  -0.028904  -0.007237
    41  H    0.002203   0.010293  -0.161172   0.722444  -0.296136  -0.047612
    42  H   -0.038667  -0.000789  -0.000144  -0.050341  -0.763778   0.034942
    43  H   -0.000885  -0.000288   0.010044  -0.056842  -0.003084   0.003776
    44  H    0.003524   0.000099  -0.000289   0.001826   0.201162  -0.016719
              19         20         21         22         23         24
     1  C    0.003376   0.000004   0.000017  -0.000127   0.000132   0.000558
     2  N    0.003570   0.000010   0.000008  -0.000083   0.000062   0.000149
     3  C    0.063696  -0.000007   0.001700   0.008881   0.001269   0.010569
     4  C   -0.015812  -0.000022  -0.000181   0.002666  -0.000176  -0.004536
     5  C   -0.000817  -0.000001  -0.000016  -0.000007  -0.000154  -0.000315
     6  N   -0.000005   0.000000   0.000000   0.000005  -0.000002   0.000026
     7  N    0.000003   0.000000   0.000000   0.000001   0.000000  -0.000002
     8  Cl   0.000335   0.000000   0.000014  -0.000096   0.000080  -0.000049
     9  C   -0.116567   0.000772  -0.002889  -0.006363   0.007779  -0.017088
    10  N   -0.026161   0.000670  -0.000972  -0.013028  -0.000257   0.017379
    11  O    0.000844   0.000005   0.000059   0.000029   0.000145   0.000057
    12  C    1.401056   0.005641   0.006616   0.007957  -0.005389   0.058714
    13  C   -3.787459   0.021021  -0.159214   0.120052   0.275354   0.059964
    14  C   -0.109983  -0.002430   0.000442   0.003704  -0.000211  -0.004472
    15  N   -0.172070   0.003584  -0.023514  -0.000861  -0.002482   0.083864
    16  C   -4.551827   0.032170   0.578691   0.167687   0.021494  -1.628595
    17  C  -17.065138   0.004857  -2.182295   0.888080  -0.355091  -0.198745
    18  S    0.828223   0.002497   0.225585  -0.266510  -0.021562   0.080503
    19  C   27.865905   0.258557   1.330607  -1.226185  -0.149553   1.305048
    20  O    0.258557   8.032098  -0.113656   0.049866   0.001464  -0.005762
    21  N    1.330607  -0.113656   7.909329  -0.343998  -0.391608   0.101675
    22  C   -1.226185   0.049866  -0.343998  12.750684   0.224294   2.845346
    23  N   -0.149553   0.001464  -0.391608   0.224294   7.126087   0.092119
    24  C    1.305048  -0.005762   0.101675   2.845346   0.092119  17.609794
    25  C   -1.150312   0.002116   0.134089  -0.630314  -0.457339 -11.234110
    26  C   -0.348198   0.010083  -0.159622  -7.189167   0.737876  -5.794427
    27  C    0.802213  -0.004268  -0.293033   0.005526   0.019942   3.854837
    28  C   -0.053507   0.000927  -0.043190  -1.168894   0.098913  -2.751941
    29  Cl  -0.016800   0.000084   0.024231   0.191720  -0.141535   0.944182
    30  F    0.000081   0.000000   0.000931   0.003332  -0.001217   0.044494
    31  F   -0.002729   0.000002   0.001892   0.086802   0.001098   0.041556
    32  F    0.000304   0.000001   0.000800  -0.001721  -0.000647   0.038893
    33  H    0.000300   0.000001  -0.000004  -0.000020   0.000017   0.000078
    34  H    0.000002   0.000000   0.000000   0.000000   0.000000   0.000000
    35  H    0.000002   0.000000   0.000000   0.000001   0.000000   0.000009
    36  H    0.036200   0.000088  -0.000715  -0.004555  -0.001031   0.001254
    37  H   -0.023929   0.000443   0.001960   0.002802   0.002266  -0.012447
    38  H    0.002927  -0.000140   0.000039   0.000387   0.000048  -0.000670
    39  H    0.008301  -0.000174  -0.000053   0.000319  -0.000569   0.000214
    40  H   -0.002135   0.000164   0.000903  -0.001295   0.000347  -0.001138
    41  H    0.040963  -0.005284   0.021891  -0.005531  -0.031487  -0.078969
    42  H    0.633316  -0.026398   0.469587   0.091711   0.008355   0.233974
    43  H    0.044271   0.000017   0.022589   0.076120  -0.118379   0.708858
    44  H   -0.109455   0.003819  -0.030301  -0.398069  -0.007214  -0.241357
              25         26         27         28         29         30
     1  C   -0.000833  -0.000095   0.000053  -0.000002   0.000019   0.000000
     2  N    0.000233   0.000172   0.000013   0.000004   0.000001   0.000000
[...]
       Atomic Center   40 is at   4.079740  3.813123  0.956250
       Atomic Center   41 is at  -0.510280  1.038352 -1.732934
       Atomic Center   42 is at  -3.430497  3.342611 -0.846000
       Atomic Center   43 is at  -1.917824 -0.634175  2.131035
       Atomic Center   44 is at  -4.679311  1.251110 -1.428240
 -----------------------------------------------------------------

              Electrostatic Properties (Atomic Units)

 -----------------------------------------------------------------
    Center     Electric         -------- Electric Field --------
               Potential          X             Y             Z
 -----------------------------------------------------------------
    1 Atom    -14.695972      0.005557      0.001943     -0.003170
    2 Atom    -18.391954      0.024257      0.034482      0.008804
    3 Atom    -14.698751     -0.003525      0.001047      0.003464
    4 Atom    -14.690467      0.002467      0.000552     -0.000544
    5 Atom    -14.660387      0.000214      0.004348      0.004480
    6 Atom    -18.389123      0.016779     -0.022507     -0.033107
    7 Atom    -18.349295     -0.005162      0.000334     -0.005985
    8 Atom    -64.376105     -0.024787     -0.006140      0.015741
    9 Atom    -14.654006      0.001180     -0.004446     -0.007968
   10 Atom    -18.351744      0.004542      0.001777     -0.000856
   11 Atom    -22.393070     -0.001441     -0.023065      0.046129
   12 Atom    -14.692468      0.002403      0.004467     -0.007165
   13 Atom    -14.688623      0.004616      0.005417      0.004230
   14 Atom    -14.756086      0.000349     -0.000738     -0.000462
   15 Atom    -18.382444      0.015253     -0.034822     -0.019932
   16 Atom    -14.716590     -0.005898     -0.000684     -0.001068
   17 Atom    -14.715741      0.000247      0.000297      0.000816
   18 Atom    -59.186374      0.005089      0.014066      0.009834
   19 Atom    -14.628486      0.007196     -0.005190      0.000814
   20 Atom    -22.369831     -0.001642      0.051500      0.004234
   21 Atom    -18.327110      0.003113     -0.000615     -0.008686
   22 Atom    -14.650205     -0.005509     -0.005124     -0.000997
   23 Atom    -18.365648      0.033870      0.020851      0.018031
   24 Atom    -14.695986      0.000734     -0.006090      0.004081
   25 Atom    -14.669226      0.001985      0.002533     -0.000175
   26 Atom    -14.690873      0.000056      0.000666     -0.000153
   27 Atom    -14.715895     -0.000730      0.001579     -0.002546
   28 Atom    -14.478680      0.015814      0.009066      0.007202
   29 Atom    -64.365795     -0.005481     -0.026799      0.012751
   30 Atom    -26.547191     -0.030893     -0.008112      0.030767
   31 Atom    -26.542493     -0.021520      0.021385     -0.031616
   32 Atom    -26.547134      0.009282     -0.039477     -0.017660
   33 Atom     -1.091565      0.016248      0.004586     -0.009726
   34 Atom     -0.995869      0.009800     -0.012813     -0.016616
   35 Atom     -0.993140     -0.018211     -0.008468      0.011354
   36 Atom     -1.006355     -0.003922      0.010769      0.019133
   37 Atom     -1.084658      0.007271     -0.010819     -0.014044
   38 Atom     -1.095711     -0.000988      0.009543     -0.015553
   39 Atom     -1.099154      0.017745     -0.004062      0.003032
   40 Atom     -1.093394     -0.005393      0.010661      0.013345
   41 Atom     -1.069368     -0.012176     -0.010959     -0.011000
   42 Atom     -0.981308     -0.017167      0.013410     -0.005207
   43 Atom     -1.067124      0.011683     -0.006968      0.014258
   44 Atom     -1.046912     -0.010403      0.007880     -0.014495
 -----------------------------------------------------------------
 -----------------------------------------------------
    Center         ---- Electric Field Gradient ----
                     XX            YY            ZZ
 -----------------------------------------------------
    1 Atom     -500.970968   -501.109451   -501.115001
    2 Atom     -814.515459   -813.934099   -814.774070
    3 Atom     -501.025080   -500.982048   -501.060784
    4 Atom     -501.013552   -500.617230   -500.762928
    5 Atom     -500.850905   -500.889831   -500.864403
    6 Atom     -814.603589   -814.227629   -813.930408
    7 Atom     -811.649087   -811.828276   -811.541495
    8 Atom    ************  ************  ************
    9 Atom     -501.417101   -500.999756   -500.808825
   10 Atom     -811.263860   -812.631766   -812.705856
   11 Atom    -1238.647660  -1236.862665  -1238.390823
   12 Atom     -500.235686   -500.170871   -500.359139
   13 Atom     -501.249882   -501.560091   -501.545619
   14 Atom     -500.308453   -500.380417   -500.292156
   15 Atom     -814.744421   -814.125998   -814.762083
   16 Atom     -500.974397   -500.964253   -501.062800
   17 Atom     -501.117975   -500.925233   -501.034271
   18 Atom    ************  ************  ************
   19 Atom     -500.924965   -500.789311   -501.384174
   20 Atom    -1236.324025  -1238.791416  -1239.020590
   21 Atom     -812.527202   -812.489364   -811.326193
   22 Atom     -500.639834   -500.786812   -500.762866
   23 Atom     -813.844254   -814.381308   -814.703784
   24 Atom     -500.984926   -501.015590   -501.040043
   25 Atom     -500.711198   -501.131965   -500.864393
   26 Atom     -500.957955   -500.798448   -500.924872
   27 Atom     -500.839088   -500.825821   -500.895600
   28 Atom     -500.436809   -500.702172   -500.759697
   29 Atom    ************  ************  ************
   30 Atom    -1787.606712  -1785.638536  -1787.614479
   31 Atom    -1786.279651  -1786.526411  -1787.639970
   32 Atom    -1785.649097  -1788.942841  -1786.258808
   33 Atom       -2.021818     -1.732070     -1.816870
   34 Atom       -1.683275     -1.770260     -1.865933
   35 Atom       -1.935109     -1.665254     -1.725105
   36 Atom       -1.571493     -1.760913     -2.017503
   37 Atom       -1.752908     -1.844444     -1.940005
   38 Atom       -1.680588     -1.801481     -2.010980
   39 Atom       -2.095590     -1.703312     -1.686044
   40 Atom       -1.732701     -1.836979     -1.931296
   41 Atom       -1.870828     -1.817860     -1.813931
   42 Atom       -1.955497     -1.801888     -1.580074
   43 Atom       -1.838460     -1.750319     -1.918812
   44 Atom       -1.793677     -1.749795     -1.914216
 -----------------------------------------------------
 -----------------------------------------------------
    Center         ---- Electric Field Gradient ----
                     XY            XZ            YZ
 -----------------------------------------------------
    1 Atom        0.160001     -0.235736      0.126217
    2 Atom        0.570452      0.182319      0.323030
    3 Atom        0.127926     -0.133390      0.173530
    4 Atom       -0.042264      0.220784      0.133908
    5 Atom        0.089647     -0.203179      0.158226
    6 Atom       -0.237522     -0.288854      0.606597
    7 Atom       -0.447538      0.472423     -0.502637
    8 Atom       -1.166725      2.178356      0.801965
    9 Atom       -0.076001     -0.067969     -0.016655
   10 Atom        0.273662      0.031717      0.061944
   11 Atom       -0.389837     -0.163519      0.880720
   12 Atom        0.019103     -0.074221      0.258693
   13 Atom        0.075285      0.165754      0.058414
   14 Atom       -0.072701      0.005622     -0.023049
   15 Atom       -0.437174     -0.208113      0.545988
   16 Atom        0.024534      0.075036      0.204456
   17 Atom       -0.144727     -0.102655      0.027242
   18 Atom        0.571332     -0.322382     -0.419489
   19 Atom       -0.112851      0.008472      0.028314
   20 Atom        0.129598      0.033916     -0.039293
   21 Atom       -0.135761     -0.216292      0.425168
   22 Atom        0.061866      0.200436     -0.019624
   23 Atom        0.617496      0.502779      0.200111
   24 Atom        0.073552      0.234272     -0.138271
   25 Atom        0.001241      0.183818      0.130528
   26 Atom        0.048033      0.096061     -0.161324
   27 Atom        0.084404      0.143040     -0.125559
   28 Atom        0.235512      0.168254      0.114993
   29 Atom       -0.764459      0.592334      2.181164
   30 Atom       -0.475211      2.174059      0.532887
   31 Atom        1.080074     -1.431126      1.627812
   32 Atom        0.877724      0.433557     -1.580764
   33 Atom       -0.094551      0.194734      0.047952
   34 Atom        0.117690      0.200523     -0.258787
   35 Atom       -0.190152      0.258095      0.080965
   36 Atom        0.064795      0.090434     -0.233451
   37 Atom        0.092599      0.118946     -0.175690
   38 Atom        0.011441     -0.028373      0.200134
   39 Atom        0.097115     -0.073954      0.017214
   40 Atom        0.080089      0.111908     -0.195591
   41 Atom       -0.158592     -0.165953     -0.151815
   42 Atom        0.246399     -0.109178      0.091812
   43 Atom        0.091419     -0.198324      0.126892
   44 Atom        0.093396     -0.191014      0.147759
 -----------------------------------------------------
 -----------------------------------------------------
    Center         ---- Electric Field Gradient ----
                   ----       Eigenvalues       ----
 -----------------------------------------------------
    1 Atom     -501.417082   -500.993401   -500.784938
    2 Atom     -814.887451   -814.857711   -813.478466
    3 Atom     -501.316032   -500.911501   -500.840378
    4 Atom     -501.162539   -500.710081   -500.521090
    5 Atom     -501.172267   -500.790489   -500.642383
    6 Atom     -814.718917   -814.699164   -813.343545
    7 Atom     -812.234583   -812.070764   -810.713510
    8 Atom    ************  ************  ************
    9 Atom     -501.438257   -500.986458   -500.800966
   10 Atom     -812.751741   -812.639828   -811.209913
   11 Atom    -1238.795122  -1238.724055  -1236.381970
   12 Atom     -500.556410   -500.222593   -499.986693
   13 Atom     -501.629850   -501.571305   -501.154437
   14 Atom     -500.427619   -500.298206   -500.255202
   15 Atom     -815.084810   -814.940584   -813.607106
   16 Atom     -501.231588   -500.989411   -500.780453
   17 Atom     -501.228823   -501.027582   -500.821075
   18 Atom    ************  ************  ************
   19 Atom     -501.385952   -500.987662   -500.724835
   20 Atom    -1239.028275  -1238.790894  -1236.316862
   21 Atom     -812.667136   -812.532691   -811.142932
   22 Atom     -500.930664   -500.772103   -500.486745
   23 Atom     -814.957440   -814.726272   -813.245635
   24 Atom     -501.324077   -500.946787   -500.769695
   25 Atom     -501.196430   -500.932740   -500.578387
   26 Atom     -501.109773   -500.883986   -500.687515
   27 Atom     -501.096963   -500.748151   -500.715396
   28 Atom     -500.851775   -500.824665   -500.222236
   29 Atom    ************  ************  ************
   30 Atom    -1789.903812  -1785.535270  -1785.420645
   31 Atom    -1789.733778  -1785.397843  -1785.314411
   32 Atom    -1789.899753  -1785.532590  -1785.418403
   33 Atom       -2.165209     -1.711134     -1.694414
   34 Atom       -2.186359     -1.602965     -1.530144
   35 Atom       -2.187922     -1.609130     -1.528416
   36 Atom       -2.175915     -1.624078     -1.549916
   37 Atom       -2.133928     -1.710243     -1.693185
   38 Atom       -2.134131     -1.684432     -1.674486
   39 Atom       -2.131266     -1.680587     -1.673093
   40 Atom       -2.132600     -1.690295     -1.678081
   41 Atom       -2.153820     -1.685996     -1.662802
   42 Atom       -2.171081     -1.621658     -1.544721
   43 Atom       -2.143064     -1.692985     -1.671542
   44 Atom       -2.133551     -1.675917     -1.648221
 -----------------------------------------------------
 -----------------------------------------------------
    Center         ---- Electric Field Gradient ----
                       ( tensor representation )
                   3XX-RR        3YY-RR        3ZZ-RR
 -----------------------------------------------------
    1 Atom        0.094172     -0.044311     -0.049861
    2 Atom       -0.107583      0.473777     -0.366194
    3 Atom       -0.002442      0.040589     -0.038147
    4 Atom       -0.215649      0.180674      0.034975
    5 Atom        0.017475     -0.021452      0.003977
    6 Atom       -0.349714      0.026246      0.323468
    7 Atom        0.023866     -0.155324      0.131458
    8 Atom       -2.163759      1.458445      0.705314
    9 Atom       -0.341873      0.075471      0.266402
   10 Atom        0.936634     -0.431272     -0.505362
   11 Atom       -0.680611      1.104384     -0.423773
   12 Atom        0.019546      0.084361     -0.103907
   13 Atom        0.201982     -0.108227     -0.093755
   14 Atom        0.018555     -0.053408      0.034853
   15 Atom       -0.200254      0.418169     -0.217916
   16 Atom        0.026086      0.036230     -0.062317
   17 Atom       -0.092148      0.100593     -0.008445
   18 Atom       -1.629019      0.549143      1.079876
   19 Atom        0.107852      0.243505     -0.351357
   20 Atom        1.721319     -0.746072     -0.975246
   21 Atom       -0.412949     -0.375111      0.788060
   22 Atom        0.090003     -0.056974     -0.033028
   23 Atom        0.465528     -0.071526     -0.394002
   24 Atom        0.028594     -0.002071     -0.026523
   25 Atom        0.191321     -0.229446      0.038125
   26 Atom       -0.064196      0.095311     -0.031114
   27 Atom        0.014415      0.027682     -0.042097
   28 Atom        0.196084     -0.069279     -0.126804
   29 Atom        1.835160     -2.616041      0.780881
   30 Atom       -0.653469      1.314706     -0.661237
   31 Atom        0.535693      0.288933     -0.824626
   32 Atom        1.301152     -1.992593      0.691441
   33 Atom       -0.164898      0.124849      0.040049
   34 Atom        0.089881      0.002896     -0.092777
   35 Atom       -0.159953      0.109902      0.050051
   36 Atom        0.211810      0.022390     -0.234200
   37 Atom        0.092878      0.001342     -0.094219
   38 Atom        0.150428      0.029535     -0.179964
   39 Atom       -0.267275      0.125003      0.142272
   40 Atom        0.100958     -0.003320     -0.097637
   41 Atom       -0.036622      0.016346      0.020276
   42 Atom       -0.176344     -0.022735      0.199079
   43 Atom       -0.002596      0.085545     -0.082949
   44 Atom        0.025552      0.069434     -0.094987
 -----------------------------------------------------
 -----------------------------------------------------
    Center         ---- Electric Field Gradient ----
                       ( tensor representation )
                   ----       Eigenvalues       ----
 -----------------------------------------------------
    1 Atom       -0.351941      0.071739      0.280202
    2 Atom       -0.479575     -0.449835      0.929410
    3 Atom       -0.293395      0.111136      0.182259
    4 Atom       -0.364635      0.087822      0.276813
    5 Atom       -0.303887      0.077891      0.225997
    6 Atom       -0.465042     -0.445288      0.910330
    7 Atom       -0.561630     -0.397812      0.959442
    8 Atom       -3.720355      1.711709      2.008645
    9 Atom       -0.363030      0.088769      0.274261
   10 Atom       -0.551247     -0.439334      0.990581
   11 Atom       -0.828072     -0.757006      1.585079
   12 Atom       -0.301178      0.032639      0.268539
   13 Atom       -0.177986     -0.119441      0.297427
   14 Atom       -0.100610      0.028802      0.071807
   15 Atom       -0.540643     -0.396417      0.937061
   16 Atom       -0.231104      0.011073      0.220031
   17 Atom       -0.202996     -0.001756      0.204752
   18 Atom       -1.786104      0.369226      1.416878
   19 Atom       -0.353136      0.045154      0.307982
   20 Atom       -0.982931     -0.745551      1.728481
   21 Atom       -0.552883     -0.418438      0.971321
   22 Atom       -0.200827     -0.042265      0.243092
   23 Atom       -0.647658     -0.416489      1.064147
   24 Atom       -0.310558      0.066733      0.243825
   25 Atom       -0.293911     -0.030221      0.324132
   26 Atom       -0.216015      0.009772      0.206243
   27 Atom       -0.243460      0.105352      0.138107
   28 Atom       -0.218883     -0.191773      0.410656
   29 Atom       -3.840218      1.712978      2.127241
   30 Atom       -2.950570      1.417973      1.532597
   31 Atom       -2.918434      1.417501      1.500933
   32 Atom       -2.949504      1.417659      1.531845
   33 Atom       -0.308290      0.145785      0.162505
   34 Atom       -0.413203      0.170191      0.243012
   35 Atom       -0.412766      0.166026      0.246740
   36 Atom       -0.392612      0.159225      0.233387
   37 Atom       -0.288143      0.135542      0.152601
   38 Atom       -0.303115      0.146584      0.156530
   39 Atom       -0.302950      0.147728      0.155223
   40 Atom       -0.298941      0.143364      0.155577
   41 Atom       -0.319614      0.148210      0.171404
   42 Atom       -0.391928      0.157495      0.234432
   43 Atom       -0.307200      0.142879      0.164322
   44 Atom       -0.314321      0.143312      0.171009
 -----------------------------------------------------

 Test job not archived.
 1|1|UNPC-NP-ALMACH|FOpt|RB3LYP|6-311++G(d,p)|C17H12Cl2F3N7O2S1|HERA|05
 -Sep-2018|0||# RB3LYP/6-311++G** Opt Test prop=EFG||C17N7H12SO2Cl2F3||
 0,1|C,-5.6292315681,0.8871147738,-0.0063922107|N,-4.8643946782,0.04819
 82046,0.6876744827|C,-3.6789963087,0.5328258391,1.1043076455|C,-3.2734
 854737,1.8195667036,0.7988603477|C,-4.1540115521,2.6234127381,0.035974
 7668|N,-5.3445907948,2.1381002166,-0.3486663518|N,-3.8420392604,3.8834
 153255,-0.3454023153|Cl,-1.7260784629,2.4714389792,1.2892014016|C,-2.8
 723312186,-0.3723740246,2.0174678058|N,-2.5344610454,-1.609765987,1.55
 35618383|O,-2.6003686314,-0.0056311417,3.1476627617|C,-2.6588441952,-2
 .1573342967,0.1990466837|C,-1.352368905,-2.0018639975,-0.554751979|C,-
 3.1731607084,-3.5971519808,0.2581893671|N,-1.0838810569,-0.9530135575,
 -1.2851155017|C,0.1882669067,-1.0041009375,-1.7759631658|C,0.924936964
 4,-2.1064713026,-1.431228374|S,-0.0481684565,-3.1640175751,-0.45164864
 |C,2.2662231134,-2.5251941711,-1.8745869327|O,2.5668148084,-3.69402488
 55,-2.0307095659|N,3.1778854673,-1.5213293188,-2.2269764199|C,3.412487
 4413,-0.2879480952,-1.5981315594|N,2.9054091836,-0.0823392975,-0.38573
 76103|C,3.1386428532,1.084421554,0.2097735858|C,3.9163083982,2.0928089
 125,-0.3548605423|C,4.4679943613,1.8722554673,-1.6237980268|C,4.199360
 1771,0.6668128019,-2.2578739623|C,5.3260798378,2.9057782405,-2.3259733
 178|Cl,4.1623579338,3.5622905753,0.5513799814|F,6.4337307526,3.1987714
 596,-1.6174510033|F,5.7362338736,2.4667900658,-3.5355963269|F,4.654934
 5068,4.0560528035,-2.5322047489|H,-6.5941151814,0.5083832806,-0.330490
 5652|H,-4.5540359343,4.4228106413,-0.8099546823|H,-3.0155363856,4.3399
 676629,0.0007278232|H,-2.0222501021,-2.1597102603,2.2333431252|H,-3.38
 31747339,-1.5430424928,-0.331805156|H,-3.2800850971,-4.0088623738,-0.7
 473681147|H,-4.14578753,-3.6144250326,0.7519193593|H,-2.4936594424,-4.
 2469519038,0.8191064127|H,0.5414142253,-0.2025764112,-2.4105550292|H,3
 .9512153351,-1.8979264594,-2.7612323258|H,2.7036697726,1.2281976118,1.
 1930978679|H,4.5855538103,0.4752046455,-3.2498808283||Version=EM64W-G0
 9RevD.01|State=1-A|HF=-2807.380124|RMSD=3.292e-009|RMSF=2.868e-006|Dip
 ole=-0.0137388,0.3164355,-1.145427|Quadrupole=0.5731219,5.7239801,-6.2
 97102,-2.5320524,5.8989741,-2.155858|PG=C01 [X(C17H12Cl2F3N7O2S1)]||@


 THERE IS SOMETHING FASCINATING ABOUT SCIENCE.
 ONE GETS SUCH WHOLESALE CONJECTURE OUT OF SUCH TRIFLING INVESTMENTS.

                                                       -- MARK TWAIN
 Job cpu time:       0 days  6 hours  5 minutes 57.0 seconds.
 File lengths (MBytes):  RWF=    415 Int=      0 D2E=      0 Chk=     51 Scr=      1
 Normal termination of Gaussian 09 at Wed Sep 05 03:07:14 2018.
